[Molden Format]
made by pyscf v[2.1.1]
[Atoms] (AU)
H   1   1     0.00000000000000     0.00000000000000     0.00000000000000
C   2   6     0.00000000000000     0.00000000000000     2.05511873443925
C   3   6     2.28986807253722     0.00000000000000     8.18882580462276
C   4   6    -0.12318557688202     2.57667180646245     3.27307556761330
H   5   1     3.76933087600695     1.84871339848363     1.97468254194713
H   6   1    -1.14912166936064     2.78193574783884     5.03923817007142
H   7   1    -0.28324915908493     4.21540261743666     2.04441910512196
C   8   6     2.34803006319908     1.15161799757119     3.28520949905913
C   9   6     3.48366097775645    -0.06101547710996     5.59865757417867
H   10   1     0.01403877537939    -5.63266130606409     5.48404379499767
C   11   6    -0.02602719791363    -3.57802823123886     5.50378954327325
H   12   1     3.53290157138424     0.14049735790916     9.81848593019906
C   13   6    -2.62703678713436    -2.41155320687633     5.61295146258488
H   14   1    -1.83582357658797    -3.65736838257872     1.71559920054314
H   15   1    -2.87673007942539    -0.65984322981888     6.65370678733234
H   16   1    -4.24299072912919    -3.67327987654756     5.74483922827052
C   17   6    -1.17836140168604    -2.34755952139406     3.15631128010255
H   18   1     5.53858129095262    -0.04050438975393     5.57891182590309
H   19   1     0.51584042994865     1.00408140984803     8.43101121502090
C   20   6     2.28796511832978    -2.44310218452595     6.71604696245561
H   21   1     3.61911276691303    -3.86451071172292     7.37267576813661
[GTO]
1 0
 s    3 1.00
             18.731137    0.03349459952309
             2.8253937    0.23472694665786
             0.6401217    0.81375731841339
 s    1 1.00
             0.1612778                   1

2 0
 s    6 1.00
             3047.5249  0.0018347001629433
             457.36951    0.01403730124668
             103.94869   0.068842606114048
             29.210155    0.23218442062076
              9.286663    0.46794134155879
              3.163927    0.36231203217765
 s    3 1.00
             7.8682724   -0.11933240861517
             1.8812885   -0.16085421161283
             0.5442493     1.1434564825515
 s    1 1.00
             0.1687144                   1
 p    3 1.00
             7.8682724   0.068999095584993
             1.8812885    0.31642397975315
             0.5442493    0.74430825237435
 p    1 1.00
             0.1687144                   1
 d    1 1.00
                   0.8                   1

3 0
 s    6 1.00
             3047.5249  0.0018347001629433
             457.36951    0.01403730124668
             103.94869   0.068842606114048
             29.210155    0.23218442062076
              9.286663    0.46794134155879
              3.163927    0.36231203217765
 s    3 1.00
             7.8682724   -0.11933240861517
             1.8812885   -0.16085421161283
             0.5442493     1.1434564825515
 s    1 1.00
             0.1687144                   1
 p    3 1.00
             7.8682724   0.068999095584993
             1.8812885    0.31642397975315
             0.5442493    0.74430825237435
 p    1 1.00
             0.1687144                   1
 d    1 1.00
                   0.8                   1

4 0
 s    6 1.00
             3047.5249  0.0018347001629433
             457.36951    0.01403730124668
             103.94869   0.068842606114048
             29.210155    0.23218442062076
              9.286663    0.46794134155879
              3.163927    0.36231203217765
 s    3 1.00
             7.8682724   -0.11933240861517
             1.8812885   -0.16085421161283
             0.5442493     1.1434564825515
 s    1 1.00
             0.1687144                   1
 p    3 1.00
             7.8682724   0.068999095584993
             1.8812885    0.31642397975315
             0.5442493    0.74430825237435
 p    1 1.00
             0.1687144                   1
 d    1 1.00
                   0.8                   1

5 0
 s    3 1.00
             18.731137    0.03349459952309
             2.8253937    0.23472694665786
             0.6401217    0.81375731841339
 s    1 1.00
             0.1612778                   1

6 0
 s    3 1.00
             18.731137    0.03349459952309
             2.8253937    0.23472694665786
             0.6401217    0.81375731841339
 s    1 1.00
             0.1612778                   1

7 0
 s    3 1.00
             18.731137    0.03349459952309
             2.8253937    0.23472694665786
             0.6401217    0.81375731841339
 s    1 1.00
             0.1612778                   1

8 0
 s    6 1.00
             3047.5249  0.0018347001629433
             457.36951    0.01403730124668
             103.94869   0.068842606114048
             29.210155    0.23218442062076
              9.286663    0.46794134155879
              3.163927    0.36231203217765
 s    3 1.00
             7.8682724   -0.11933240861517
             1.8812885   -0.16085421161283
             0.5442493     1.1434564825515
 s    1 1.00
             0.1687144                   1
 p    3 1.00
             7.8682724   0.068999095584993
             1.8812885    0.31642397975315
             0.5442493    0.74430825237435
 p    1 1.00
             0.1687144                   1
 d    1 1.00
                   0.8                   1

9 0
 s    6 1.00
             3047.5249  0.0018347001629433
             457.36951    0.01403730124668
             103.94869   0.068842606114048
             29.210155    0.23218442062076
              9.286663    0.46794134155879
              3.163927    0.36231203217765
 s    3 1.00
             7.8682724   -0.11933240861517
             1.8812885   -0.16085421161283
             0.5442493     1.1434564825515
 s    1 1.00
             0.1687144                   1
 p    3 1.00
             7.8682724   0.068999095584993
             1.8812885    0.31642397975315
             0.5442493    0.74430825237435
 p    1 1.00
             0.1687144                   1
 d    1 1.00
                   0.8                   1

10 0
 s    3 1.00
             18.731137    0.03349459952309
             2.8253937    0.23472694665786
             0.6401217    0.81375731841339
 s    1 1.00
             0.1612778                   1

11 0
 s    6 1.00
             3047.5249  0.0018347001629433
             457.36951    0.01403730124668
             103.94869   0.068842606114048
             29.210155    0.23218442062076
              9.286663    0.46794134155879
              3.163927    0.36231203217765
 s    3 1.00
             7.8682724   -0.11933240861517
             1.8812885   -0.16085421161283
             0.5442493     1.1434564825515
 s    1 1.00
             0.1687144                   1
 p    3 1.00
             7.8682724   0.068999095584993
             1.8812885    0.31642397975315
             0.5442493    0.74430825237435
 p    1 1.00
             0.1687144                   1
 d    1 1.00
                   0.8                   1

12 0
 s    3 1.00
             18.731137    0.03349459952309
             2.8253937    0.23472694665786
             0.6401217    0.81375731841339
 s    1 1.00
             0.1612778                   1

13 0
 s    6 1.00
             3047.5249  0.0018347001629433
             457.36951    0.01403730124668
             103.94869   0.068842606114048
             29.210155    0.23218442062076
              9.286663    0.46794134155879
              3.163927    0.36231203217765
 s    3 1.00
             7.8682724   -0.11933240861517
             1.8812885   -0.16085421161283
             0.5442493     1.1434564825515
 s    1 1.00
             0.1687144                   1
 p    3 1.00
             7.8682724   0.068999095584993
             1.8812885    0.31642397975315
             0.5442493    0.74430825237435
 p    1 1.00
             0.1687144                   1
 d    1 1.00
                   0.8                   1

14 0
 s    3 1.00
             18.731137    0.03349459952309
             2.8253937    0.23472694665786
             0.6401217    0.81375731841339
 s    1 1.00
             0.1612778                   1

15 0
 s    3 1.00
             18.731137    0.03349459952309
             2.8253937    0.23472694665786
             0.6401217    0.81375731841339
 s    1 1.00
             0.1612778                   1

16 0
 s    3 1.00
             18.731137    0.03349459952309
             2.8253937    0.23472694665786
             0.6401217    0.81375731841339
 s    1 1.00
             0.1612778                   1

17 0
 s    6 1.00
             3047.5249  0.0018347001629433
             457.36951    0.01403730124668
             103.94869   0.068842606114048
             29.210155    0.23218442062076
              9.286663    0.46794134155879
              3.163927    0.36231203217765
 s    3 1.00
             7.8682724   -0.11933240861517
             1.8812885   -0.16085421161283
             0.5442493     1.1434564825515
 s    1 1.00
             0.1687144                   1
 p    3 1.00
             7.8682724   0.068999095584993
             1.8812885    0.31642397975315
             0.5442493    0.74430825237435
 p    1 1.00
             0.1687144                   1
 d    1 1.00
                   0.8                   1

18 0
 s    3 1.00
             18.731137    0.03349459952309
             2.8253937    0.23472694665786
             0.6401217    0.81375731841339
 s    1 1.00
             0.1612778                   1

19 0
 s    3 1.00
             18.731137    0.03349459952309
             2.8253937    0.23472694665786
             0.6401217    0.81375731841339
 s    1 1.00
             0.1612778                   1

20 0
 s    6 1.00
             3047.5249  0.0018347001629433
             457.36951    0.01403730124668
             103.94869   0.068842606114048
             29.210155    0.23218442062076
              9.286663    0.46794134155879
              3.163927    0.36231203217765
 s    3 1.00
             7.8682724   -0.11933240861517
             1.8812885   -0.16085421161283
             0.5442493     1.1434564825515
 s    1 1.00
             0.1687144                   1
 p    3 1.00
             7.8682724   0.068999095584993
             1.8812885    0.31642397975315
             0.5442493    0.74430825237435
 p    1 1.00
             0.1687144                   1
 d    1 1.00
                   0.8                   1

21 0
 s    3 1.00
             18.731137    0.03349459952309
             2.8253937    0.23472694665786
             0.6401217    0.81375731841339
 s    1 1.00
             0.1612778                   1

[5d]
[7f]
[9g]

[MO]
 Sym= A
 Ene=               0
 Spin= Alpha
 Occup=    1.00000
   1    -0.00014140191429991
   2    0.0011162209952092
   3      0.40623339007377
   4     0.009914804477067
   5    -0.0041755175655686
   6    9.4161992514587e-05
   7    0.00024593402400801
   8    0.00010117433867522
   9    9.844017588317e-05
  10    -0.00081001001351677
  11    0.00011498798309499
  12    0.00013030208303923
  13    -2.4062594379768e-05
  14    -1.2001060540773e-07
  15    -1.7180875802067e-05
  16    -0.00013489655162932
  17     0.027059270223509
  18    0.00017283915629146
  19    0.0025817420100148
  20    4.1380433247279e-06
  21    7.3116154009882e-05
  22    0.00016033360763122
  23    5.0644046696797e-05
  24    -0.00038365909425484
  25    -0.00076351006056472
  26    -0.00017162655343003
  27    0.0001506064717056
  28    -0.00019019786369177
  29    0.00013123681410673
  30    -2.1803801979936e-05
  31     0.027064415540615
  32    0.00017293456607992
  33    0.0025827879260531
  34    -7.617175692554e-05
  35    0.00015887611222979
  36    -3.3291474029645e-06
  37    0.00039901438519224
  38    -0.00075579090871139
  39    -5.4095006657403e-05
  40    0.00019657537227728
  41    -1.9585824903512e-05
  42    -0.00015324483175234
  43     7.42563115292e-05
  44    0.00019498703500597
  45    -0.00014140158591122
  46    0.0011161673929761
  47    -0.00023920752457569
  48    -1.8721932075135e-05
  49    -0.0001560135546642
  50    0.0001542459500133
  51      0.40622086915759
  52     0.009914491862851
  53    -0.004175468093587
  54    -0.00025933675360082
  55    7.2556662353954e-05
  56    -8.4021446181186e-05
  57    0.00041344177943842
  58    -0.00065549734113154
  59    0.00027990725556416
  60    -2.7452202245539e-05
  61    -0.00018118635639191
  62    -2.223072685763e-05
  63    -4.4385365130557e-05
  64    1.3445183878552e-06
  65      0.40613543274724
  66    0.0099120835726238
  67    -0.0041733117405403
  68    -9.7710612547344e-05
  69    -9.9856408539624e-05
  70    0.00024496101109957
  71    -0.00012269049747953
  72    -8.3825462102832e-05
  73    -0.00081044670222417
  74    -4.5720860582367e-05
  75    -3.6587319891912e-06
  76    0.00013432857451015
  77    0.00012445490655293
  78    -2.0282948959799e-05
  79    -0.00014137163503405
  80    0.0011161305303657
  81       0.4061691043985
  82    0.0099130594389445
  83    -0.0041745338779434
  84    -0.00024688714699041
  85    9.7219113072545e-05
  86    -9.5569699737355e-05
  87    0.00080844077028167
  88    0.00013186393517268
  89    -8.9188413424213e-05
  90    -8.1923753446697e-05
  91    -0.00013500546571521
  92    2.3794236058737e-05
  93    -0.00010261882133311
  94    -2.8388203675066e-06
  95    -0.00015597434177204
  96    0.00015418161863878
  97     0.027060055278769
  98    0.00017283280476008
  99    0.0025820285157428
 100    -0.00015954706340377
 101    -7.1699810407308e-06
 102    7.4578111170828e-05
 103    0.0007603336995836
 104    -3.5584989168552e-05
 105    -0.0003918391249219
 106    -3.0245727039711e-05
 107    0.00019441256991911
 108    2.7438776070952e-05
 109    -0.00021480607128959
 110    0.00014287206505503
 111    -0.00014136655848299
 112    0.0011162254443818
 113    -0.00023917204766456
 114    -1.8663269905606e-05
 115    -0.00015598244453993
 116    0.00015420913401517
 117      0.40616802919483
 118    0.0099129655315563
 119    -0.004173954709278
 120    -7.3464163726935e-05
 121    -8.7968681275944e-05
 122    0.00025769576803225
 123    0.00065403103340615
 124    0.00029709174037557
 125    -0.00040368926355857
 126    -2.1644316412694e-05
 127    -1.0882987322964e-06
 128    0.00018135570524469
 129    4.6875689728692e-05
 130    2.2207436623989e-05
 131    -0.00014135779357439
 132    0.0011161801938932
 133    -0.00023915378122245
 134    -1.8640737631584e-05
 135       0.4061675030586
 136    0.0099129939124434
 137    -0.0041745331035982
 138    8.2189701620451e-05
 139    0.0002586057606031
 140    7.6833271504697e-05
 141    -0.00028260377660337
 142    -0.00040313029599044
 143    -0.00066066631300391
 144    5.1760406099692e-05
 145    1.955648413401e-05
 146    -1.134862680405e-06
 147    2.1662239425713e-06
 148    -0.00018157787317937
 149    -0.00014135587144129
 150    0.0011161691056943
 Sym= A
 Ene=               1
 Spin= Alpha
 Occup=    1.00000
   1    -0.00033002455362471
   2    0.00016242627985379
   3      0.51336564265367
   4     0.014207017453105
   5    -0.0097762622811131
   6    0.00039212940848383
   7    0.00023027930188478
   8    0.00071133737521324
   9    0.00057731378858149
  10    -0.0014994301763684
  11    -0.0035847158570345
  12    0.00015500622786747
  13    -1.7233348577826e-05
  14    -0.00011504540702763
  15    -7.4826276421028e-05
  16    -0.00010036614978657
  17    -0.019145966769924
  18    -0.00017638707756442
  19    -0.0041779187122999
  20    -8.9908773946394e-05
  21    -8.0493242514129e-05
  22    0.00015048910700607
  23    0.00053508811551788
  24    0.00083344603509249
  25    0.0015045937424857
  26    -7.5705889906848e-05
  27    -6.2534685234171e-05
  28    0.00018088008603811
  29    -0.00016268557243663
  30    -5.6696334919458e-06
  31     0.035395336010514
  32    0.00032608774911715
  33     0.007724449830977
  34    0.00010856592482076
  35    -0.00015670828414968
  36    -3.925746438022e-05
  37    0.0010796548996609
  38    -0.0030089017770116
  39    0.00071312296812972
  40    0.0001416899750585
  41    3.5048584902742e-05
  42    -0.00026602087553619
  43    -1.8899209877127e-05
  44    0.00015241093312542
  45    -0.00033523966055049
  46    5.0372142084429e-05
  47    -0.00046309753566692
  48    -0.00055688873778412
  49    -0.00024886828344615
  50    0.00065251207557782
  51       0.4867916195953
  52     0.013536356632744
  53    -0.0095507176117567
  54    -0.00073793269481385
  55    -0.00032596221872838
  56    0.00011319710834117
  57    0.0032987815020476
  58    -0.0001616298592648
  59    -0.0023495398333872
  60    2.305804407201e-05
  61    -0.00015236651316308
  62    -0.00015614681520045
  63    -9.7054549510691e-05
  64    -1.6336408855975e-06
  65    -0.033126215847924
  66    -0.0015126158849623
  67    0.0032128249109271
  68    0.00021682744396355
  69    1.4100758611409e-06
  70    -3.9601053210004e-06
  71    -0.0032367788990562
  72    0.0011584562242228
  73    0.00040301046880961
  74    -0.00012845660843312
  75    -0.0002245706056535
  76    -4.2494376076705e-05
  77    -8.5097570896787e-05
  78    0.0001533265866102
  79    0.00010355529016601
  80    -0.0011059578883781
  81     -0.48030283995522
  82    -0.012695918284218
  83    0.0065638285036042
  84    0.00023419424695668
  85    -0.00049379264328738
  86    0.00039042572950813
  87    -0.0011514537538458
  88    0.00033948756690968
  89    -0.00062836073978917
  90    1.1673879231945e-05
  91    5.5642351395474e-05
  92    0.00013414829595348
  93    0.00016690054209361
  94    0.00011623161232302
  95    0.00013461239767899
  96    -0.00035291664898611
  97     -0.01625449445928
  98    -0.00014973719160984
  99    -0.0035469981913702
 100    -6.3238358530831e-06
 101    -5.4804384901827e-05
 102    0.00018463555493223
 103    -0.0015139377146648
 104    -0.00021576750096125
 105    0.00020549861642379
 106    -9.6731431027084e-05
 107    2.329820041784e-05
 108    2.8736963024979e-05
 109    0.00011009095229925
 110    -0.00020150596865007
 111    0.00020193317609212
 112    0.0010080517617491
 113    0.0002126580894102
 114    0.0002557031225466
 115    0.00011428427839131
 116    -0.00029962381148251
 117     0.020998258777303
 118    -4.449775415324e-05
 119    0.0023110796334974
 120    -3.5273197116881e-05
 121    -0.00013374696769644
 122    -7.683055229561e-05
 123    3.5579812503622e-05
 124    0.0026542038049686
 125    0.0018506995224436
 126    0.00021116346443918
 127    0.00013721828235277
 128    -1.5767335924328e-05
 129    4.6708374782475e-05
 130    -0.00018482036795148
 131    0.0002264976212053
 132    0.00094333914814566
 133    0.00025048262033325
 134    0.00030118718271387
 135     -0.50787442959964
 136    -0.013493959924337
 137    0.0072407671154495
 138    -1.1276200220945e-05
 139    -0.00066844371137572
 140    0.00027452889369935
 141    0.00030929180935355
 142     0.001472443030256
 143    0.00029282074480892
 144    6.2302009280828e-07
 145    2.9225858440004e-05
 146    0.00013664371714718
 147    0.00013320988970486
 148    0.00014310899909554
 149    0.00013332908068592
 150    -0.0010586361246261
 Sym= A
 Ene=               2
 Spin= Alpha
 Occup=    1.00000
   1    7.0991948387855e-05
   2    0.0011831805678757
   3      0.25820039599191
   4    0.0064573340922179
   5    -0.0019356275459894
   6    0.00022731634757423
   7    0.00013083371832244
   8    0.00016030713297273
   9    -0.0010498107677794
  10    -0.00046311659361832
  11    0.0016584636697548
  12    8.5952367993956e-05
  13    0.00016439414886602
  14    0.0001952182012257
  15    0.00013321537811535
  16    -6.2717218459253e-06
  17    -0.029820319731178
  18    -0.00027470119400219
  19    -0.006507532614362
  20    7.1315693102429e-06
  21    0.00016784208924787
  22    9.6867414368565e-05
  23    0.00053630216452982
  24    0.00070612109517714
  25    0.0026213249482176
  26    0.00011768953810438
  27    -0.00027092290030234
  28    6.956267171573e-05
  29    -5.7520664624566e-05
  30    -3.2529030975812e-05
  31    -0.0016701639964912
  32    -1.5400893802441e-05
  33    -0.00036435827506954
  34     0.000151181879158
  35    8.4052248487089e-05
  36    8.3733052338344e-05
  37    -0.00036667885759917
  38    -1.2955105585793e-05
  39    -0.00019904460286017
  40    -3.6073507972411e-05
  41    1.4046303039651e-05
  42    -8.3251931165206e-05
  43    0.0001674987231437
  44    -0.00011472973544303
  45    -3.9611253147675e-05
  46    -0.0011932714739274
  47    2.1843154486413e-05
  48    2.6265430964237e-05
  49    1.1742519443846e-05
  50    -3.0769596336219e-05
  51     -0.30539314511371
  52    -0.0077663573839314
  53    0.0028474615417087
  54    0.0003393264664774
  55    0.00014358243474094
  56    8.9111658163629e-05
  57    0.00020145593040011
  58    0.00021504151750549
  59    -0.0017272193799683
  60    0.00014838824928782
  61    7.3313847343132e-05
  62    -0.00012382238561567
  63    -0.00012930430705912
  64    -0.00016290694556784
  65     -0.57367370888092
  66    -0.015531800228597
  67    0.0094330882344123
  68    0.00068906264311412
  69    0.00046522351292252
  70    -0.00026262537379461
  71    -0.0022593425518149
  72    -7.7162119908986e-05
  73    0.0015512037402783
  74    8.7178725125864e-05
  75    4.8694337284066e-07
  76    -8.9443722513997e-05
  77    -0.00015296983064774
  78    -7.114773549601e-05
  79    -0.00032129829852932
  80    -0.00045088927870214
  81      0.31550897546289
  82    0.0090755467367813
  83    -0.0074994056778216
  84    -0.00014222636282237
  85    0.00053537367049388
  86    -0.00022210017967605
  87    0.0011534545188575
  88    -0.0039021817597014
  89    -0.0010518226630552
  90    -0.00015918846816303
  91    -8.1217908656646e-05
  92    0.00010029837989953
  93    -1.9211744944667e-05
  94    0.00019642838122499
  95    0.00020966324345479
  96    -0.00054972477006318
  97     0.031488382560833
  98    0.00029008151099529
  99    0.0068717368657593
 100    0.00017935230489001
 101    -7.2227067995093e-05
 102    -1.7366111629439e-05
 103    0.0025956880997111
 104    0.00077828724475768
 105    -0.0010853631969353
 106    -0.00015410724373248
 107     0.000193440829335
 108    -1.4398968630641e-05
 109    -8.116072403625e-05
 110    0.00018410940746453
 111    -0.00027052975695434
 112    0.00064026730806308
 113    -0.00041198004836575
 114    -0.00049540539806693
 115    -0.00022139697937842
 116    0.00058048220977186
 117      0.57425208132988
 118     0.015605456000536
 119    -0.0096939874108723
 120    0.00034503513674656
 121    5.2404717882261e-05
 122    0.00081267723804249
 123    0.00029744449214263
 124    -0.0011389096708961
 125    -0.002764426436952
 126    1.4506618152391e-05
 127    7.7799170818924e-05
 128    0.00017014057147891
 129    5.4687094845312e-05
 130    7.3033386900493e-05
 131    0.00025033302877877
 132    -0.00073230055151246
 133    0.00039015183963938
 134    0.00046914128276099
 135     -0.26894352115764
 136    -0.0078413720507696
 137    0.0068489773958489
 138    0.0001492296750282
 139    -0.00047199706993276
 140    0.0001999152529254
 141    -0.0029267794287854
 142    0.0029275894323843
 143    0.00011780481456167
 144    -8.1141310626108e-05
 145    -0.0001943104410531
 146    -7.9902374045245e-05
 147    -0.00016125533358476
 148    9.5174820031472e-05
 149    0.0003101301593605
 150    0.00055287726696136
 Sym= A
 Ene=               3
 Spin= Alpha
 Occup=    1.00000
   1    2.7502981338801e-05
   2    0.00079474409718768
   3      0.51845449307261
   4     0.014057709156022
   5    -0.012991131933528
   6    0.00010130728188058
   7    0.00025049219317609
   8    0.0004087908044815
   9    -0.0015046266556623
  10    -0.00086280044259056
  11    -0.0027273900916337
  12    -7.7206747957448e-05
  13    5.3585860404801e-05
  14    0.00015407721436451
  15    -3.3987649097377e-05
  16    0.00021047082693239
  17     0.019389793175251
  18    0.00078924789540788
  19    0.0022511349580507
  20    -8.8619078507118e-05
  21    -0.00012222829761813
  22    -0.00022809518239464
  23    -0.00045303961489433
  24    -0.00095158111752433
  25    -9.020591001075e-05
  26    2.3710983592623e-05
  27    9.3662545221891e-05
  28    -0.00016657173398995
  29    0.00015176589620288
  30    0.00010168310549424
  31    0.0015058671456919
  32    6.129714345657e-05
  33    0.00017485413154629
  34    -6.5277447510785e-05
  35    -5.440397369814e-05
  36    -3.2509536948966e-05
  37    -0.0013544080341316
  38    -0.00070634679503299
  39    -0.0007122943443899
  40    -0.00010073558723494
  41    -4.7459049838987e-05
  42    -0.00013302217906532
  43    0.00017985628138433
  44    -5.2574339212061e-05
  45    -4.2412693322318e-05
  46    -0.00077983470644925
  47    -2.8777236116141e-06
  48    -1.4822994529442e-05
  49    -1.0779359832706e-05
  50    -5.9878012805641e-06
  51     -0.48204828954671
  52    -0.013025760122397
  53     0.012092856530964
  54    0.00041421928319195
  55    1.5895050912187e-05
  56    -0.00010737418682768
  57     -0.00275642196768
  58    -0.0012229865137334
  59    0.00015687919587508
  60    4.5037757030842e-05
  61    -0.00015376251151551
  62    -5.0706850692421e-05
  63    -0.00022032635218808
  64    1.1001385414528e-05
  65    -0.043753486809895
  66    -0.00088553623756691
  67    0.0011902453726722
  68    -9.5921377651517e-05
  69    -0.00016516420906305
  70    5.7044728385089e-05
  71    0.00055893639448223
  72    -0.0012551364845982
  73    0.00067900166036912
  74    6.4124601283108e-05
  75    0.00018969586282424
  76    1.3765987390837e-05
  77    8.6996570598277e-05
  78    -8.6763566450358e-05
  79    8.7924098352001e-05
  80    -0.00045303992805104
  81     -0.47464756142029
  82    -0.013170648481829
  83      0.01179866580596
  84    0.00031697488848542
  85    -0.00050332671751469
  86    0.00026257000443081
  87    -0.00021534350278637
  88    0.0032653690607936
  89    -0.00022741907039712
  90    9.2347924299902e-05
  91    -0.00019782108004374
  92    -3.612796148356e-05
  93    -9.7040371739752e-05
  94    -3.8757491613992e-05
  95    -0.00013879113465402
  96    -7.7118743527149e-05
  97     -0.02089615681743
  98    -0.00085054470717733
  99    -0.0024260655931716
 100    -0.00028037358457239
 101    -6.1176614160682e-05
 102    5.7192767762116e-05
 103    -0.00078317563662761
 104    0.00023931942471446
 105    -0.00041091115752488
 106    -5.6538973353868e-05
 107    -0.00011165821322042
 108    5.0592653159941e-05
 109    6.4328057945229e-05
 110    -0.0002212433154607
 111    0.00011894304195165
 112    0.00024590551719536
 113    3.9931865538738e-05
 114    0.00020564153576678
 115    0.00014957530800032
 116    8.3104891697663e-05
 117    -0.030555982760451
 118    -0.0011492047510796
 119    0.00066540457420691
 120    -0.00010864018357416
 121    5.9456238928324e-05
 122    -0.00024050358547105
 123    1.4608951198974e-05
 124    0.0016044883719904
 125    -6.5145195308922e-05
 126    0.00013034616269116
 127    5.3921008455174e-05
 128    -7.9478698744661e-06
 129    5.3118456480005e-05
 130    -0.00017385962386333
 131    -0.00011540393096445
 132    -0.00034166682461717
 133    -3.7047933896583e-05
 134    -0.00019081790118521
 135      0.51252857901943
 136     0.014172892405489
 137    -0.012755809869661
 138    -5.5755801623573e-05
 139    0.00065596009050488
 140    -0.00011252067098784
 141    0.0017983025987813
 142    -0.0026813251720099
 143    0.0011983132774775
 144    -0.00014387597608586
 145    0.00012450843454009
 146    7.3130497500673e-05
 147    -1.3883958779533e-05
 148    0.00014709308118864
 149    -7.6545901093464e-05
 150    0.00053383331465571
 Sym= A
 Ene=               4
 Spin= Alpha
 Occup=    1.00000
   1    0.00011737073737411
   2    -6.4267414312419e-05
   3     -0.24875266662113
   4    -0.0070922008637922
   5    0.0061245757235953
   6    -0.00024677692195611
   7    -0.00021306024714711
   8    -0.00034926210300583
   9    -0.00057137819568559
  10    -0.00032019920259097
  11    0.0021975930564832
  12    -5.1131042455912e-09
  13    6.7070514205603e-05
  14    0.00013185615541938
  15    0.00013447492653994
  16    -0.00010428773427898
  17     0.012935587330988
  18    0.0005264707913063
  19    0.0015017648662718
  20    -1.4996774254124e-05
  21    6.358648828181e-06
  22    -0.0001933644958789
  23    0.00053748864426628
  24    0.0010380639561613
  25    -0.00084491726814522
  26    -0.00010836743616999
  27    0.00020582027009809
  28    -2.5354337450779e-05
  29    -0.0001130254656074
  30    -2.4267513665656e-06
  31     -0.02325653948252
  32    -0.00094671344824356
  33    -0.0027000133118974
  34    -0.00010756614856769
  35    0.00029298696515982
  36    -8.2437854186377e-05
  37    -0.00031349354073438
  38    0.00049560158334459
  39    -0.0001218148383578
  40    -8.0132096350309e-05
  41    -9.0421959222368e-05
  42    0.00018196315273677
  43    1.7093035873059e-05
  44    -0.00015736970099584
  45    0.00011285147452506
  46    -0.0001661447952317
  47    4.441813951907e-05
  48    0.00022887932065291
  49    0.00016647268699397
  50    9.2533077077448e-05
  51     -0.31350095660489
  52    -0.0088449366724606
  53    0.0077479104656662
  54     0.000516192416182
  55    0.00013603259243952
  56    6.4209305182091e-06
  57    -0.0014974331004189
  58    -0.00075791368719115
  59    0.0019416124774389
  60    -9.5701300494889e-05
  61    -8.3421118098252e-05
  62    0.00017316899672035
  63    -2.4788247522203e-05
  64    7.2425636575117e-05
  65      0.57339069371697
  66     0.015720843144861
  67    -0.014312416615315
  68    -0.00052337332951359
  69    -0.00022263839216389
  70    0.00032435832912372
  71    0.0034444608735667
  72    0.0010629270828145
  73    -0.00060051897460595
  74    0.00011025821093885
  75    -6.2895997708402e-05
  76    -0.00023874225957795
  77    -1.5025782254314e-05