title                                                                   
Guess=OnlyRHF                                                         6-31G(d,p)          
Number of atoms                            I               21
Info1-9                                    I   N=           9
           4           4           0           0           0         101
           3           1           2
Full Title                                 C   N=           1
title       
Route                                      C   N=           6
#p RHF/6-31G(d,p) guess=(read,only,save) geom=allcheck iop(4
/9=20212)   
Charge                                     I                0
Multiplicity                               I                1
Number of electrons                        I               66
Number of alpha electrons                  I               33
Number of beta electrons                   I               33
Number of basis functions                  I              195
Number of independent functions            I              195
Number of point charges in /Mol/           I                0
Number of translation vectors              I                0
Atomic numbers                             I   N=          21
           1           6           6           6           1           1
           1           6           6           1           6           1
           6           1           1           1           6           1
           1           6           1
Nuclear charges                            R   N=          21
  1.00000000E+00  6.00000000E+00  6.00000000E+00  6.00000000E+00  1.00000000E+00
  1.00000000E+00  1.00000000E+00  6.00000000E+00  6.00000000E+00  1.00000000E+00
  6.00000000E+00  1.00000000E+00  6.00000000E+00  1.00000000E+00  1.00000000E+00
  1.00000000E+00  6.00000000E+00  1.00000000E+00  1.00000000E+00  6.00000000E+00
  1.00000000E+00
Current cartesian coordinates              R   N=          63
  1.12797157E+00  4.39639440E+00 -1.99671131E+00  7.37035206E-01  2.77288255E+00
 -7.98841925E-01  8.96885542E-01 -3.37705303E+00  1.44138091E+00  2.47617124E+00
  2.46525153E+00  1.44138131E+00  4.40133763E+00  1.10853152E+00 -1.99671081E+00
  1.70850979E+00  1.70097752E+00  3.18510996E+00  3.91596757E+00  3.89869818E+00
  1.74613194E+00  2.77611241E+00  7.24772051E-01 -7.98841631E-01  2.03286904E+00
 -2.02473132E+00 -7.98843036E-01 -4.37137438E+00 -1.22134544E+00 -1.99671161E+00
 -2.76990411E+00 -7.48150022E-01 -7.98842117E-01  1.41838977E+00 -5.34067839E+00
  1.74613116E+00 -3.37305677E+00  9.11800369E-01  1.44138170E+00 -3.16068418E+00
  3.25740179E+00 -1.99671083E+00 -2.32734418E+00  6.29126327E-01  3.18510955E+00
 -5.33435646E+00  1.44197696E+00  1.74613081E+00 -2.01572875E+00  2.04179641E+00
 -7.98842869E-01  3.24340322E+00 -3.17504730E+00 -1.99671124E+00  6.18833633E-01
 -2.33010113E+00  3.18510858E+00 -7.60383899E-01 -2.76656874E+00 -7.98841476E-01
 -1.24065340E+00 -4.36593314E+00 -1.99671140E+00
Number of symbols in /Mol/                 I                0
Int Atom Types                             I   N=          21
           0           0           0           0           0           0
           0           0           0           0           0           0
           0           0           0           0           0           0
           0           0           0
Force Field                                I                0
Atom Types                                 C   N=          21
                                                            
                                                            
                                                            
                                                            
            
MM charges                                 R   N=          21
  0.00000000E+00  0.00000000E+00  0.00000000E+00  0.00000000E+00  0.00000000E+00
  0.00000000E+00  0.00000000E+00  0.00000000E+00  0.00000000E+00  0.00000000E+00
  0.00000000E+00  0.00000000E+00  0.00000000E+00  0.00000000E+00  0.00000000E+00
  0.00000000E+00  0.00000000E+00  0.00000000E+00  0.00000000E+00  0.00000000E+00
  0.00000000E+00
Integer atomic weights                     I   N=          21
           1          12          12          12           1           1
           1          12          12           1          12           1
          12           1           1           1          12           1
           1          12           1
Real atomic weights                        R   N=          21
  1.00782504E+00  1.20000000E+01  1.20000000E+01  1.20000000E+01  1.00782504E+00
  1.00782504E+00  1.00782504E+00  1.20000000E+01  1.20000000E+01  1.00782504E+00
  1.20000000E+01  1.00782504E+00  1.20000000E+01  1.00782504E+00  1.00782504E+00
  1.00782504E+00  1.20000000E+01  1.00782504E+00  1.00782504E+00  1.20000000E+01
  1.00782504E+00
Atom fragment info                         I   N=          21
           0           0           0           0           0           0
           0           0           0           0           0           0
           0           0           0           0           0           0
           0           0           0
Atom residue num                           I   N=          21
           0           0           0           0           0           0
           0           0           0           0           0           0
           0           0           0           0           0           0
           0           0           0
Nuclear spins                              I   N=          21
           1           0           0           0           1           1
           1           0           0           1           0           1
           0           1           1           1           0           1
           1           0           1
Nuclear ZEff                               R   N=          21
 -1.00000000E+00 -3.60000000E+00 -3.60000000E+00 -3.60000000E+00 -1.00000000E+00
 -1.00000000E+00 -1.00000000E+00 -3.60000000E+00 -3.60000000E+00 -1.00000000E+00
 -3.60000000E+00 -1.00000000E+00 -3.60000000E+00 -1.00000000E+00 -1.00000000E+00
 -1.00000000E+00 -3.60000000E+00 -1.00000000E+00 -1.00000000E+00 -3.60000000E+00
 -1.00000000E+00
Nuclear ZNuc                               R   N=          21
  1.00000000E+00  6.00000000E+00  6.00000000E+00  6.00000000E+00  1.00000000E+00
  1.00000000E+00  1.00000000E+00  6.00000000E+00  6.00000000E+00  1.00000000E+00
  6.00000000E+00  1.00000000E+00  6.00000000E+00  1.00000000E+00  1.00000000E+00
  1.00000000E+00  6.00000000E+00  1.00000000E+00  1.00000000E+00  6.00000000E+00
  1.00000000E+00
Nuclear QMom                               R   N=          21
  0.00000000E+00  0.00000000E+00  0.00000000E+00  0.00000000E+00  0.00000000E+00
  0.00000000E+00  0.00000000E+00  0.00000000E+00  0.00000000E+00  0.00000000E+00
  0.00000000E+00  0.00000000E+00  0.00000000E+00  0.00000000E+00  0.00000000E+00
  0.00000000E+00  0.00000000E+00  0.00000000E+00  0.00000000E+00  0.00000000E+00
  0.00000000E+00
Nuclear GFac                               R   N=          21
  2.79284600E+00  0.00000000E+00  0.00000000E+00  0.00000000E+00  2.79284600E+00
  2.79284600E+00  2.79284600E+00  0.00000000E+00  0.00000000E+00  2.79284600E+00
  0.00000000E+00  2.79284600E+00  0.00000000E+00  2.79284600E+00  2.79284600E+00
  2.79284600E+00  0.00000000E+00  2.79284600E+00  2.79284600E+00  0.00000000E+00
  2.79284600E+00
MicOpt                                     I   N=          21
          -1          -1          -1          -1          -1          -1
          -1          -1          -1          -1          -1          -1
          -1          -1          -1          -1          -1          -1
          -1          -1          -1
Number of residues                         I                0
Number of secondary structures             I                0
SymInf integers                            I   N=          26
           1           1           1           1           1           0
           0           0           0           0           0           0
           0           0           0           0           0           0
           0           0           0           0           0           0
           0           0
RotTr to input orientation                 R   N=          12
 -1.00000000E+00  7.65658344E-10 -0.00000000E+00 -7.65658344E-10 -1.00000000E+00
 -0.00000000E+00  0.00000000E+00  0.00000000E+00  1.00000000E+00 -7.40148683E-17
 -5.51747200E-16 -5.18104078E-16
Number of contracted shells                I               72
Number of primitive shells                 I              159
Pure/Cartesian d shells                    I                1
Pure/Cartesian f shells                    I                0
Highest angular momentum                   I                2
Largest degree of contraction              I                6
Shell types                                I   N=          72
           0           0           1           0          -1          -1
           2           0          -1          -1           2           0
          -1          -1           2           0           0           1
           0           0           1           0           0           1
           0          -1          -1           2           0          -1
          -1           2           0           0           1           0
          -1          -1           2           0           0           1
           0          -1          -1           2           0           0
           1           0           0           1           0           0
           1           0          -1          -1           2           0
           0           1           0           0           1           0
          -1          -1           2           0           0           1
Number of primitives per shell             I   N=          72
           3           1           1           6           3           1
           1           6           3           1           1           6
           3           1           1           3           1           1
           3           1           1           3           1           1
           6           3           1           1           6           3
           1           1           3           1           1           6
           3           1           1           3           1           1
           6           3           1           1           3           1
           1           3           1           1           3           1
           1           6           3           1           1           3
           1           1           3           1           1           6
           3           1           1           3           1           1
Shell to atom map                          I   N=          72
           1           1           1           2           2           2
           2           3           3           3           3           4
           4           4           4           5           5           5
           6           6           6           7           7           7
           8           8           8           8           9           9
           9           9          10          10          10          11
          11          11          11          12          12          12
          13          13          13          13          14          14
          14          15          15          15          16          16
          16          17          17          17          17          18
          18          18          19          19          19          20
          20          20          20          21          21          21
Primitive exponents                        R   N=         159
  1.87311370E+01  2.82539436E+00  6.40121692E-01  1.61277759E-01  1.10000000E+00
  3.04752488E+03  4.57369518E+02  1.03948685E+02  2.92101553E+01  9.28666296E+00
  3.16392696E+00  7.86827235E+00  1.88128854E+00  5.44249258E-01  1.68714478E-01
  8.00000000E-01  3.04752488E+03  4.57369518E+02  1.03948685E+02  2.92101553E+01
  9.28666296E+00  3.16392696E+00  7.86827235E+00  1.88128854E+00  5.44249258E-01
  1.68714478E-01  8.00000000E-01  3.04752488E+03  4.57369518E+02  1.03948685E+02
  2.92101553E+01  9.28666296E+00  3.16392696E+00  7.86827235E+00  1.88128854E+00
  5.44249258E-01  1.68714478E-01  8.00000000E-01  1.87311370E+01  2.82539436E+00
  6.40121692E-01  1.61277759E-01  1.10000000E+00  1.87311370E+01  2.82539436E+00
  6.40121692E-01  1.61277759E-01  1.10000000E+00  1.87311370E+01  2.82539436E+00
  6.40121692E-01  1.61277759E-01  1.10000000E+00  3.04752488E+03  4.57369518E+02
  1.03948685E+02  2.92101553E+01  9.28666296E+00  3.16392696E+00  7.86827235E+00
  1.88128854E+00  5.44249258E-01  1.68714478E-01  8.00000000E-01  3.04752488E+03
  4.57369518E+02  1.03948685E+02  2.92101553E+01  9.28666296E+00  3.16392696E+00
  7.86827235E+00  1.88128854E+00  5.44249258E-01  1.68714478E-01  8.00000000E-01
  1.87311370E+01  2.82539436E+00  6.40121692E-01  1.61277759E-01  1.10000000E+00
  3.04752488E+03  4.57369518E+02  1.03948685E+02  2.92101553E+01  9.28666296E+00
  3.16392696E+00  7.86827235E+00  1.88128854E+00  5.44249258E-01  1.68714478E-01
  8.00000000E-01  1.87311370E+01  2.82539436E+00  6.40121692E-01  1.61277759E-01
  1.10000000E+00  3.04752488E+03  4.57369518E+02  1.03948685E+02  2.92101553E+01
  9.28666296E+00  3.16392696E+00  7.86827235E+00  1.88128854E+00  5.44249258E-01
  1.68714478E-01  8.00000000E-01  1.87311370E+01  2.82539436E+00  6.40121692E-01
  1.61277759E-01  1.10000000E+00  1.87311370E+01  2.82539436E+00  6.40121692E-01
  1.61277759E-01  1.10000000E+00  1.87311370E+01  2.82539436E+00  6.40121692E-01
  1.61277759E-01  1.10000000E+00  3.04752488E+03  4.57369518E+02  1.03948685E+02
  2.92101553E+01  9.28666296E+00  3.16392696E+00  7.86827235E+00  1.88128854E+00
  5.44249258E-01  1.68714478E-01  8.00000000E-01  1.87311370E+01  2.82539436E+00
  6.40121692E-01  1.61277759E-01  1.10000000E+00  1.87311370E+01  2.82539436E+00
  6.40121692E-01  1.61277759E-01  1.10000000E+00  3.04752488E+03  4.57369518E+02
  1.03948685E+02  2.92101553E+01  9.28666296E+00  3.16392696E+00  7.86827235E+00
  1.88128854E+00  5.44249258E-01  1.68714478E-01  8.00000000E-01  1.87311370E+01
  2.82539436E+00  6.40121692E-01  1.61277759E-01  1.10000000E+00
Contraction coefficients                   R   N=         159
  3.34946043E-02  2.34726953E-01  8.13757326E-01  1.00000000E+00  1.00000000E+00
  1.83473713E-03  1.40373228E-02  6.88426223E-02  2.32184443E-01  4.67941348E-01
  3.62311985E-01 -1.19332420E-01 -1.60854152E-01  1.14345644E+00  1.00000000E+00
  1.00000000E+00  1.83473713E-03  1.40373228E-02  6.88426223E-02  2.32184443E-01
  4.67941348E-01  3.62311985E-01 -1.19332420E-01 -1.60854152E-01  1.14345644E+00
  1.00000000E+00  1.00000000E+00  1.83473713E-03  1.40373228E-02  6.88426223E-02
  2.32184443E-01  4.67941348E-01  3.62311985E-01 -1.19332420E-01 -1.60854152E-01
  1.14345644E+00  1.00000000E+00  1.00000000E+00  3.34946043E-02  2.34726953E-01
  8.13757326E-01  1.00000000E+00  1.00000000E+00  3.34946043E-02  2.34726953E-01
  8.13757326E-01  1.00000000E+00  1.00000000E+00  3.34946043E-02  2.34726953E-01
  8.13757326E-01  1.00000000E+00  1.00000000E+00  1.83473713E-03  1.40373228E-02
  6.88426223E-02  2.32184443E-01  4.67941348E-01  3.62311985E-01 -1.19332420E-01
 -1.60854152E-01  1.14345644E+00  1.00000000E+00  1.00000000E+00  1.83473713E-03
  1.40373228E-02  6.88426223E-02  2.32184443E-01  4.67941348E-01  3.62311985E-01
 -1.19332420E-01 -1.60854152E-01  1.14345644E+00  1.00000000E+00  1.00000000E+00
  3.34946043E-02  2.34726953E-01  8.13757326E-01  1.00000000E+00  1.00000000E+00
  1.83473713E-03  1.40373228E-02  6.88426223E-02  2.32184443E-01  4.67941348E-01
  3.62311985E-01 -1.19332420E-01 -1.60854152E-01  1.14345644E+00  1.00000000E+00
  1.00000000E+00  3.34946043E-02  2.34726953E-01  8.13757326E-01  1.00000000E+00
  1.00000000E+00  1.83473713E-03  1.40373228E-02  6.88426223E-02  2.32184443E-01
  4.67941348E-01  3.62311985E-01 -1.19332420E-01 -1.60854152E-01  1.14345644E+00
  1.00000000E+00  1.00000000E+00  3.34946043E-02  2.34726953E-01  8.13757326E-01
  1.00000000E+00  1.00000000E+00  3.34946043E-02  2.34726953E-01  8.13757326E-01
  1.00000000E+00  1.00000000E+00  3.34946043E-02  2.34726953E-01  8.13757326E-01
  1.00000000E+00  1.00000000E+00  1.83473713E-03  1.40373228E-02  6.88426223E-02
  2.32184443E-01  4.67941348E-01  3.62311985E-01 -1.19332420E-01 -1.60854152E-01
  1.14345644E+00  1.00000000E+00  1.00000000E+00  3.34946043E-02  2.34726953E-01
  8.13757326E-01  1.00000000E+00  1.00000000E+00  3.34946043E-02  2.34726953E-01
  8.13757326E-01  1.00000000E+00  1.00000000E+00  1.83473713E-03  1.40373228E-02
  6.88426223E-02  2.32184443E-01  4.67941348E-01  3.62311985E-01 -1.19332420E-01
 -1.60854152E-01  1.14345644E+00  1.00000000E+00  1.00000000E+00  3.34946043E-02
  2.34726953E-01  8.13757326E-01  1.00000000E+00  1.00000000E+00
P(S=P) Contraction coefficients            R   N=         159
  0.00000000E+00  0.00000000E+00  0.00000000E+00  0.00000000E+00  0.00000000E+00
  0.00000000E+00  0.00000000E+00  0.00000000E+00  0.00000000E+00  0.00000000E+00
  0.00000000E+00  6.89990666E-02  3.16423961E-01  7.44308291E-01  1.00000000E+00
  0.00000000E+00  0.00000000E+00  0.00000000E+00  0.00000000E+00  0.00000000E+00
  0.00000000E+00  0.00000000E+00  6.89990666E-02  3.16423961E-01  7.44308291E-01
  1.00000000E+00  0.00000000E+00  0.00000000E+00  0.00000000E+00  0.00000000E+00
  0.00000000E+00  0.00000000E+00  0.00000000E+00  6.89990666E-02  3.16423961E-01
  7.44308291E-01  1.00000000E+00  0.00000000E+00  0.00000000E+00  0.00000000E+00
  0.00000000E+00  0.00000000E+00  0.00000000E+00  0.00000000E+00  0.00000000E+00
  0.00000000E+00  0.00000000E+00  0.00000000E+00  0.00000000E+00  0.00000000E+00
  0.00000000E+00  0.00000000E+00  0.00000000E+00  0.00000000E+00  0.00000000E+00
  0.00000000E+00  0.00000000E+00  0.00000000E+00  0.00000000E+00  6.89990666E-02
  3.16423961E-01  7.44308291E-01  1.00000000E+00  0.00000000E+00  0.00000000E+00
  0.00000000E+00  0.00000000E+00  0.00000000E+00  0.00000000E+00  0.00000000E+00
  6.89990666E-02  3.16423961E-01  7.44308291E-01  1.00000000E+00  0.00000000E+00
  0.00000000E+00  0.00000000E+00  0.00000000E+00  0.00000000E+00  0.00000000E+00
  0.00000000E+00  0.00000000E+00  0.00000000E+00  0.00000000E+00  0.00000000E+00
  0.00000000E+00  6.89990666E-02  3.16423961E-01  7.44308291E-01  1.00000000E+00
  0.00000000E+00  0.00000000E+00  0.00000000E+00  0.00000000E+00  0.00000000E+00
  0.00000000E+00  0.00000000E+00  0.00000000E+00  0.00000000E+00  0.00000000E+00
  0.00000000E+00  0.00000000E+00  6.89990666E-02  3.16423961E-01  7.44308291E-01
  1.00000000E+00  0.00000000E+00  0.00000000E+00  0.00000000E+00  0.00000000E+00
  0.00000000E+00  0.00000000E+00  0.00000000E+00  0.00000000E+00  0.00000000E+00
  0.00000000E+00  0.00000000E+00  0.00000000E+00  0.00000000E+00  0.00000000E+00
  0.00000000E+00  0.00000000E+00  0.00000000E+00  0.00000000E+00  0.00000000E+00
  0.00000000E+00  0.00000000E+00  0.00000000E+00  6.89990666E-02  3.16423961E-01
  7.44308291E-01  1.00000000E+00  0.00000000E+00  0.00000000E+00  0.00000000E+00
  0.00000000E+00  0.00000000E+00  0.00000000E+00  0.00000000E+00  0.00000000E+00
  0.00000000E+00  0.00000000E+00  0.00000000E+00  0.00000000E+00  0.00000000E+00
  0.00000000E+00  0.00000000E+00  0.00000000E+00  0.00000000E+00  6.89990666E-02
  3.16423961E-01  7.44308291E-01  1.00000000E+00  0.00000000E+00  0.00000000E+00
  0.00000000E+00  0.00000000E+00  0.00000000E+00  0.00000000E+00
Coordinates of each shell                  R   N=         216
  1.12797157E+00  4.39639440E+00 -1.99671131E+00  1.12797157E+00  4.39639440E+00
 -1.99671131E+00  1.12797157E+00  4.39639440E+00 -1.99671131E+00  7.37035206E-01
  2.77288255E+00 -7.98841925E-01  7.37035206E-01  2.77288255E+00 -7.98841925E-01
  7.37035206E-01  2.77288255E+00 -7.98841925E-01  7.37035206E-01  2.77288255E+00
 -7.98841925E-01  8.96885542E-01 -3.37705303E+00  1.44138091E+00  8.96885542E-01
 -3.37705303E+00  1.44138091E+00  8.96885542E-01 -3.37705303E+00  1.44138091E+00
  8.96885542E-01 -3.37705303E+00  1.44138091E+00  2.47617124E+00  2.46525153E+00
  1.44138131E+00  2.47617124E+00  2.46525153E+00  1.44138131E+00  2.47617124E+00
  2.46525153E+00  1.44138131E+00  2.47617124E+00  2.46525153E+00  1.44138131E+00
  4.40133763E+00  1.10853152E+00 -1.99671081E+00  4.40133763E+00  1.10853152E+00
 -1.99671081E+00  4.40133763E+00  1.10853152E+00 -1.99671081E+00  1.70850979E+00
  1.70097752E+00  3.18510996E+00  1.70850979E+00  1.70097752E+00  3.18510996E+00
  1.70850979E+00  1.70097752E+00  3.18510996E+00  3.91596757E+00  3.89869818E+00
  1.74613194E+00  3.91596757E+00  3.89869818E+00  1.74613194E+00  3.91596757E+00
  3.89869818E+00  1.74613194E+00  2.77611241E+00  7.24772051E-01 -7.98841631E-01
  2.77611241E+00  7.24772051E-01 -7.98841631E-01  2.77611241E+00  7.24772051E-01
 -7.98841631E-01  2.77611241E+00  7.24772051E-01 -7.98841631E-01  2.03286904E+00
 -2.02473132E+00 -7.98843036E-01  2.03286904E+00 -2.02473132E+00 -7.98843036E-01
  2.03286904E+00 -2.02473132E+00 -7.98843036E-01  2.03286904E+00 -2.02473132E+00
 -7.98843036E-01 -4.37137438E+00 -1.22134544E+00 -1.99671161E+00 -4.37137438E+00
 -1.22134544E+00 -1.99671161E+00 -4.37137438E+00 -1.22134544E+00 -1.99671161E+00
 -2.76990411E+00 -7.48150022E-01 -7.98842117E-01 -2.76990411E+00 -7.48150022E-01
 -7.98842117E-01 -2.76990411E+00 -7.48150022E-01 -7.98842117E-01 -2.76990411E+00
 -7.48150022E-01 -7.98842117E-01  1.41838977E+00 -5.34067839E+00  1.74613116E+00
  1.41838977E+00 -5.34067839E+00  1.74613116E+00  1.41838977E+00 -5.34067839E+00
  1.74613116E+00 -3.37305677E+00  9.11800369E-01  1.44138170E+00 -3.37305677E+00
  9.11800369E-01  1.44138170E+00 -3.37305677E+00  9.11800369E-01  1.44138170E+00
 -3.37305677E+00  9.11800369E-01  1.44138170E+00 -3.16068418E+00  3.25740179E+00
 -1.99671083E+00 -3.16068418E+00  3.25740179E+00 -1.99671083E+00 -3.16068418E+00
  3.25740179E+00 -1.99671083E+00 -2.32734418E+00  6.29126327E-01  3.18510955E+00
 -2.32734418E+00  6.29126327E-01  3.18510955E+00 -2.32734418E+00  6.29126327E-01
  3.18510955E+00 -5.33435646E+00  1.44197696E+00  1.74613081E+00 -5.33435646E+00
  1.44197696E+00  1.74613081E+00 -5.33435646E+00  1.44197696E+00  1.74613081E+00
 -2.01572875E+00  2.04179641E+00 -7.98842869E-01 -2.01572875E+00  2.04179641E+00
 -7.98842869E-01 -2.01572875E+00  2.04179641E+00 -7.98842869E-01 -2.01572875E+00
  2.04179641E+00 -7.98842869E-01  3.24340322E+00 -3.17504730E+00 -1.99671124E+00
  3.24340322E+00 -3.17504730E+00 -1.99671124E+00  3.24340322E+00 -3.17504730E+00
 -1.99671124E+00  6.18833633E-01 -2.33010113E+00  3.18510858E+00  6.18833633E-01
 -2.33010113E+00  3.18510858E+00  6.18833633E-01 -2.33010113E+00  3.18510858E+00
 -7.60383899E-01 -2.76656874E+00 -7.98841476E-01 -7.60383899E-01 -2.76656874E+00
 -7.98841476E-01 -7.60383899E-01 -2.76656874E+00 -7.98841476E-01 -7.60383899E-01
 -2.76656874E+00 -7.98841476E-01 -1.24065340E+00 -4.36593314E+00 -1.99671140E+00
 -1.24065340E+00 -4.36593314E+00 -1.99671140E+00 -1.24065340E+00 -4.36593314E+00
 -1.99671140E+00
Num ILSW                                   I              100
ILSW                                       I   N=         100
           0           1           0           0           0           0
           0           0           0           0           0          -1
           5           0           0           0           0           0
           0           0           0           0           0           0
           0           0           0           0           0           0
           0           0      100000           0          -1           0
           0           0           0           0           0           0
           0           0           0           1           0           0
           0 -2000000000           1           0           0           0
           0           0           4          52           0           0
           0           0           0           0           0           0
           0           0           0          21           0           1
           0           0           0           0           0           0
           0           0           0           0           0           0
           0           0           0           0           0           0
           0           0           0           0           0           0
           0           0           0           0
Num RLSW                                   I               52
RLSW                                       R   N=          52
  1.00000000E+00  1.00000000E+00  1.00000000E+00  1.00000000E+00  1.00000000E+00
  0.00000000E+00  0.00000000E+00  1.00000000E+00  0.00000000E+00  0.00000000E+00
  0.00000000E+00  0.00000000E+00  1.00000000E+00  0.00000000E+00  0.00000000E+00
  0.00000000E+00  0.00000000E+00  1.00000000E+00  0.00000000E+00  0.00000000E+00
  0.00000000E+00  0.00000000E+00  1.00000000E+00  0.00000000E+00  0.00000000E+00
  0.00000000E+00  0.00000000E+00  1.00000000E+00  0.00000000E+00  0.00000000E+00
  0.00000000E+00  0.00000000E+00  1.00000000E+00  0.00000000E+00  0.00000000E+00
  0.00000000E+00  0.00000000E+00  0.00000000E+00  1.00000000E+00  1.00000000E+00
  0.00000000E+00  1.00000000E+00  0.00000000E+00  0.00000000E+00  0.00000000E+00
  0.00000000E+00  0.00000000E+00  0.00000000E+00  0.00000000E+00  0.00000000E+00
  0.00000000E+00  0.00000000E+00
MxBond                                     I                4
NBond                                      I   N=          21
           1           4           4           4           1           1
           1           4           4           1           4           1
           4           1           1           1           4           1
           1           4           1
IBond                                      I   N=          84
           2           0           0           0           1           4
           8          17           9          12          19          20
           2           6           7           8           8           0
           0           0           4           0           0           0
           4           0           0           0           2           4
           5           9           3           8          18          20
          11           0           0           0          10          13
          17          20           3           0           0           0
          11          15          16          17          17           0
           0           0          13           0           0           0
          13           0           0           0           2          11
          13          14           9           0           0           0
           3           0           0           0           3           9
          11          21          20           0           0           0
RBond                                      R   N=          84
  1.00000000E+00  0.00000000E+00  0.00000000E+00  0.00000000E+00  1.00000000E+00
  1.00000000E+00  1.00000000E+00  1.00000000E+00  1.00000000E+00  1.00000000E+00
  1.00000000E+00  1.00000000E+00  1.00000000E+00  1.00000000E+00  1.00000000E+00
  1.00000000E+00  1.00000000E+00  0.00000000E+00  0.00000000E+00  0.00000000E+00
  1.00000000E+00  0.00000000E+00  0.00000000E+00  0.00000000E+00  1.00000000E+00
  0.00000000E+00  0.00000000E+00  0.00000000E+00  1.00000000E+00  1.00000000E+00
  1.00000000E+00  1.00000000E+00  1.00000000E+00  1.00000000E+00  1.00000000E+00
  1.00000000E+00  1.00000000E+00  0.00000000E+00  0.00000000E+00  0.00000000E+00
  1.00000000E+00  1.00000000E+00  1.00000000E+00  1.00000000E+00  1.00000000E+00
  0.00000000E+00  0.00000000E+00  0.00000000E+00  1.00000000E+00  1.00000000E+00
  1.00000000E+00  1.00000000E+00  1.00000000E+00  0.00000000E+00  0.00000000E+00
  0.00000000E+00  1.00000000E+00  0.00000000E+00  0.00000000E+00  0.00000000E+00
  1.00000000E+00  0.00000000E+00  0.00000000E+00  0.00000000E+00  1.00000000E+00
  1.00000000E+00  1.00000000E+00  1.00000000E+00  1.00000000E+00  0.00000000E+00
  0.00000000E+00  0.00000000E+00  1.00000000E+00  0.00000000E+00  0.00000000E+00
  0.00000000E+00  1.00000000E+00  1.00000000E+00  1.00000000E+00  1.00000000E+00
  1.00000000E+00  0.00000000E+00  0.00000000E+00  0.00000000E+00
Virial Ratio                               R      0.000000000000000E+00
Job Status                                 I               -1
Nuclear derivative order                   I                0
External E-field                           R   N=          35
  0.00000000E+00  0.00000000E+00  0.00000000E+00  0.00000000E+00  0.00000000E+00
  0.00000000E+00  0.00000000E+00  0.00000000E+00  0.00000000E+00  0.00000000E+00
  0.00000000E+00  0.00000000E+00  0.00000000E+00  0.00000000E+00  0.00000000E+00
  0.00000000E+00  0.00000000E+00  0.00000000E+00  0.00000000E+00  0.00000000E+00
  0.00000000E+00  0.00000000E+00  0.00000000E+00  0.00000000E+00  0.00000000E+00
  0.00000000E+00  0.00000000E+00  0.00000000E+00  0.00000000E+00  0.00000000E+00
  0.00000000E+00  0.00000000E+00  0.00000000E+00  0.00000000E+00  0.00000000E+00
IOpCl                                      I                0
IROHF                                      I                0
Alpha Orbital Energies                     R   N=         195
 -1.12276708E+01 -1.12273950E+01 -1.12273949E+01 -1.12267480E+01 -1.12267479E+01
 -1.12264245E+01 -1.12189126E+01 -1.12189126E+01 -1.12188966E+01 -1.18032124E+00
 -1.10523543E+00 -1.10523530E+00 -8.75417106E-01 -8.75416861E-01 -8.60412307E-01
 -7.64380904E-01 -7.64380743E-01 -7.04044119E-01 -6.70995629E-01 -6.51963449E-01
 -6.29515673E-01 -6.29515489E-01 -5.31525094E-01 -5.31524923E-01 -5.24838743E-01
 -4.89072980E-01 -4.89072831E-01 -4.83579390E-01 -4.46879861E-01 -4.46879654E-01
 -3.72433629E-01 -3.51712822E-01 -3.51712445E-01  2.04793613E-01  2.40436218E-01