 Entering Gaussian System, Link 0=g16
 Initial command:
 /public/home/zyli/senxu/soft/g16/l1.exe "/tmp/Gau-9179.inp" -scrdir="/tmp/"
 Entering Link 1 = /public/home/zyli/senxu/soft/g16/l1.exe PID=      9180.
  
 Copyright (c) 1988-2019, Gaussian, Inc.  All Rights Reserved.
  
 This is part of the Gaussian(R) 16 program.  It is based on
 the Gaussian(R) 09 system (copyright 2009, Gaussian, Inc.),
 the Gaussian(R) 03 system (copyright 2003, Gaussian, Inc.),
 the Gaussian(R) 98 system (copyright 1998, Gaussian, Inc.),
 the Gaussian(R) 94 system (copyright 1995, Gaussian, Inc.),
 the Gaussian 92(TM) system (copyright 1992, Gaussian, Inc.),
 the Gaussian 90(TM) system (copyright 1990, Gaussian, Inc.),
 the Gaussian 88(TM) system (copyright 1988, Gaussian, Inc.),
 the Gaussian 86(TM) system (copyright 1986, Carnegie Mellon
 University), and the Gaussian 82(TM) system (copyright 1983,
 Carnegie Mellon University). Gaussian is a federally registered
 trademark of Gaussian, Inc.
  
 This software contains proprietary and confidential information,
 including trade secrets, belonging to Gaussian, Inc.
  
 This software is provided under written license and may be
 used, copied, transmitted, or stored only in accord with that
 written license.
  
 The following legend is applicable only to US Government
 contracts under FAR:
  
                    RESTRICTED RIGHTS LEGEND
  
 Use, reproduction and disclosure by the US Government is
 subject to restrictions as set forth in subparagraphs (a)
 and (c) of the Commercial Computer Software - Restricted
 Rights clause in FAR 52.227-19.
  
 Gaussian, Inc.
 340 Quinnipiac St., Bldg. 40, Wallingford CT 06492
  
  
 ---------------------------------------------------------------
 Warning -- This program may not be used in any manner that
 competes with the business of Gaussian, Inc. or will provide
 assistance to any competitor of Gaussian, Inc.  The licensee
 of this program is prohibited from giving any competitor of
 Gaussian, Inc. access to this program.  By using this program,
 the user acknowledges that Gaussian, Inc. is engaged in the
 business of creating and licensing software in the field of
 computational chemistry and represents and warrants to the
 licensee that it is not a competitor of Gaussian, Inc. and that
 it will not use this program in any manner prohibited above.
 ---------------------------------------------------------------
  

 Cite this work as:
 Gaussian 16, Revision C.01,
 M. J. Frisch, G. W. Trucks, H. B. Schlegel, G. E. Scuseria, 
 M. A. Robb, J. R. Cheeseman, G. Scalmani, V. Barone, 
 G. A. Petersson, H. Nakatsuji, X. Li, M. Caricato, A. V. Marenich, 
 J. Bloino, B. G. Janesko, R. Gomperts, B. Mennucci, H. P. Hratchian, 
 J. V. Ortiz, A. F. Izmaylov, J. L. Sonnenberg, D. Williams-Young, 
 F. Ding, F. Lipparini, F. Egidi, J. Goings, B. Peng, A. Petrone, 
 T. Henderson, D. Ranasinghe, V. G. Zakrzewski, J. Gao, N. Rega, 
 G. Zheng, W. Liang, M. Hada, M. Ehara, K. Toyota, R. Fukuda, 
 J. Hasegawa, M. Ishida, T. Nakajima, Y. Honda, O. Kitao, H. Nakai, 
 T. Vreven, K. Throssell, J. A. Montgomery, Jr., J. E. Peralta, 
 F. Ogliaro, M. J. Bearpark, J. J. Heyd, E. N. Brothers, K. N. Kudin, 
 V. N. Staroverov, T. A. Keith, R. Kobayashi, J. Normand, 
 K. Raghavachari, A. P. Rendell, J. C. Burant, S. S. Iyengar, 
 J. Tomasi, M. Cossi, J. M. Millam, M. Klene, C. Adamo, R. Cammi, 
 J. W. Ochterski, R. L. Martin, K. Morokuma, O. Farkas, 
 J. B. Foresman, and D. J. Fox, Gaussian, Inc., Wallingford CT, 2019.
 
 ******************************************
 Gaussian 16:  ES64L-G16RevC.01  3-Jul-2019
                12-Jan-2023 
 ******************************************
 %chk=is_6-31gd.chk
 %mem=8GB
 %nprocshared=8
 Will use up to    8 processors via shared memory.
 ---------------
 #p RHF/6-31g(d)
 ---------------
 1/38=1,172=1/1;
 2/12=2,17=6,18=5,40=1/2;
 3/5=1,6=6,7=1,11=1,25=1,30=1,116=1/1,2,3;
 4//1;
 5/5=2,38=5/2;
 6/7=2,8=2,9=2,10=2,28=1/1;
 99/5=1,9=1/99;
 Leave Link    1 at Thu Jan 12 23:36:51 2023, MaxMem=  1073741824 cpu:               0.2 elap:               0.0
 (Enter /public/home/zyli/senxu/soft/g16/l101.exe)
 -----
 title
 -----
 Symbolic Z-matrix:
 Charge =  0 Multiplicity = 1
 H                     0.        0.        0. 
 C                     0.        0.        1.08752 
 C                     1.21175   0.        4.33334 
 C                    -0.06519   1.36352   1.73204 
 H                     1.99464   0.9783    1.04496 
 H                    -0.60809   1.47214   2.66665 
 H                    -0.14989   2.23069   1.08186 
 C                     1.24252   0.60941   1.73846 
 C                     1.84347  -0.03229   2.96268 
 H                     0.00743  -2.98068   2.90203 
 C                    -0.01377  -1.89341   2.91248 
 H                     1.86953   0.07435   5.19572 
 C                    -1.39017  -1.27614   2.97025 
 H                    -0.97148  -1.9354    0.90786 
 H                    -1.5223   -0.34917   3.52099 
 H                    -2.24529  -1.94382   3.04004 
 C                    -0.62356  -1.24228   1.67025 
 H                     2.93089  -0.02143   2.95223 
 H                     0.27297   0.53134   4.4615 
 C                     1.21074  -1.29283   3.55398 
 H                     1.91515  -2.04501   3.90145 
 
 ITRead=  0  0  0  0  0  0  0  0  0  0  0  0  0  0  0  0  0  0  0  0
 ITRead=  0
 MicOpt= -1 -1 -1 -1 -1 -1 -1 -1 -1 -1 -1 -1 -1 -1 -1 -1 -1 -1 -1 -1
 MicOpt= -1
 NAtoms=     21 NQM=       21 NQMF=       0 NMMI=      0 NMMIF=      0
                NMic=       0 NMicF=      0.
                    Isotopes and Nuclear Properties:
 (Nuclear quadrupole moments (NQMom) in fm**2, nuclear magnetic moments (NMagM)
  in nuclear magnetons)

  Atom         1           2           3           4           5           6           7           8           9          10
 IAtWgt=           1          12          12          12           1           1           1          12          12           1
 AtmWgt=   1.0078250  12.0000000  12.0000000  12.0000000   1.0078250   1.0078250   1.0078250  12.0000000  12.0000000   1.0078250
 NucSpn=           1           0           0           0           1           1           1           0           0           1
 AtZEff=  -0.0000000  -0.0000000  -0.0000000  -0.0000000  -0.0000000  -0.0000000  -0.0000000  -0.0000000  -0.0000000  -0.0000000
 NQMom=    0.0000000   0.0000000   0.0000000   0.0000000   0.0000000   0.0000000   0.0000000   0.0000000   0.0000000   0.0000000
 NMagM=    2.7928460   0.0000000   0.0000000   0.0000000   2.7928460   2.7928460   2.7928460   0.0000000   0.0000000   2.7928460
 AtZNuc=   1.0000000   6.0000000   6.0000000   6.0000000   1.0000000   1.0000000   1.0000000   6.0000000   6.0000000   1.0000000

  Atom        11          12          13          14          15          16          17          18          19          20
 IAtWgt=          12           1          12           1           1           1          12           1           1          12
 AtmWgt=  12.0000000   1.0078250  12.0000000   1.0078250   1.0078250   1.0078250  12.0000000   1.0078250   1.0078250  12.0000000
 NucSpn=           0           1           0           1           1           1           0           1           1           0
 AtZEff=  -0.0000000  -0.0000000  -0.0000000  -0.0000000  -0.0000000  -0.0000000  -0.0000000  -0.0000000  -0.0000000  -0.0000000
 NQMom=    0.0000000   0.0000000   0.0000000   0.0000000   0.0000000   0.0000000   0.0000000   0.0000000   0.0000000   0.0000000
 NMagM=    0.0000000   2.7928460   0.0000000   2.7928460   2.7928460   2.7928460   0.0000000   2.7928460   2.7928460   0.0000000
 AtZNuc=   6.0000000   1.0000000   6.0000000   1.0000000   1.0000000   1.0000000   6.0000000   1.0000000   1.0000000   6.0000000

  Atom        21
 IAtWgt=           1
 AtmWgt=   1.0078250
 NucSpn=           1
 AtZEff=  -0.0000000
 NQMom=    0.0000000
 NMagM=    2.7928460
 AtZNuc=   1.0000000
 Leave Link  101 at Thu Jan 12 23:36:51 2023, MaxMem=  1073741824 cpu:               1.7 elap:               0.2
 (Enter /public/home/zyli/senxu/soft/g16/l202.exe)
                          Input orientation:                          
 ---------------------------------------------------------------------
 Center     Atomic      Atomic             Coordinates (Angstroms)
 Number     Number       Type             X           Y           Z
 ---------------------------------------------------------------------
      1          1           0        0.000000    0.000000    0.000000
      2          6           0        0.000000    0.000000    1.087522
      3          6           0        1.211746    0.000000    4.333340
      4          6           0       -0.065187    1.363516    1.732037
      5          1           0        1.994644    0.978297    1.044957
      6          1           0       -0.608089    1.472137    2.666650
      7          1           0       -0.149889    2.230695    1.081860
      8          6           0        1.242524    0.609410    1.738458
      9          6           0        1.843474   -0.032288    2.962682
     10          1           0        0.007429   -2.980676    2.902031
     11          6           0       -0.013773   -1.893411    2.912480
     12          1           0        1.869531    0.074348    5.195719
     13          6           0       -1.390168   -1.276139    2.970246
     14          1           0       -0.971476   -1.935396    0.907856
     15          1           0       -1.522300   -0.349174    3.520990
     16          1           0       -2.245294   -1.943816    3.040038
     17          6           0       -0.623562   -1.242275    1.670248
     18          1           0        2.930891   -0.021434    2.952233
     19          1           0        0.272971    0.531337    4.461499
     20          6           0        1.210739   -1.292834    3.553979
     21          1           0        1.915152   -2.045011    3.901452
 ---------------------------------------------------------------------
                    Distance matrix (angstroms):
                    1          2          3          4          5
     1  H    0.000000
     2  C    1.087522   0.000000
     3  C    4.499574   3.464630   0.000000
     4  C    2.205307   1.509578   3.202579   0.000000
     5  H    2.455118   2.222044   3.519014   2.205306   0.000000
     6  H    3.106120   2.242901   2.873472   1.086298   3.106121
     7  H    2.483725   2.235732   4.171591   1.087154   2.483724
     8  C    2.222045   1.529367   2.665659   1.509578   1.087523
     9  C    3.489545   2.629765   1.509578   2.665660   2.172971
    10  H    4.160080   3.489545   3.519013   4.499574   4.803250
    11  C    3.473865   2.629766   2.665660   3.464630   3.970905
    12  H    5.522334   4.514195   1.087155   4.171592   4.249894
    13  C    3.519014   2.665661   3.202579   3.202579   4.499575
    14  H    2.348132   2.172971   4.499573   3.519013   4.160081
    15  H    3.851842   2.891554   2.873472   2.873471   4.501312
    16  H    4.249894   3.554164   4.171592   4.171592   5.522333
    17  C    2.172971   1.507198   3.464630   2.665661   3.489546
    18  H    4.160079   3.473864   2.205306   3.519012   2.348132
    19  H    4.501312   3.426449   1.086297   2.873471   3.851842
    20  C    3.970904   3.036564   1.509578   3.464629   3.473864
    21  H    4.803249   3.970904   2.205307   4.499573   4.160081
                    6          7          8          9         10
     6  H    0.000000
     7  H    1.815741   0.000000
     8  C    2.242901   2.235733   0.000000
     9  C    2.891555   3.554164   1.507197   0.000000
    10  H    4.501312   5.522333   3.970904   3.473864   0.000000
    11  C    3.426450   4.514194   3.036564   2.629765   1.087522
    12  H    3.806390   5.064753   3.554164   2.235734   4.249894
    13  C    2.873472   4.171592   3.464630   3.464630   2.205307
    14  H    3.851842   4.249894   3.473864   3.970903   2.455117
    15  H    2.209718   3.806388   3.426449   3.426450   3.106120
    16  H    3.806389   5.064753   4.514194   4.514194   2.483724
    17  C    2.891555   3.554165   2.629766   3.036564   2.222043
    18  H    3.851843   4.249892   2.172970   1.087521   4.160080
    19  H    2.209718   3.806388   2.891553   2.242901   3.851842
    20  C    3.426449   4.514193   2.629764   1.529367   2.172971
    21  H    4.501312   5.522332   3.489545   2.222044   2.348131
                   11         12         13         14         15
    11  C    0.000000
    12  H    3.554165   0.000000
    13  C    1.509578   4.171592   0.000000
    14  H    2.222043   5.522333   2.205306   0.000000
    15  H    2.242901   3.806390   1.086297   3.106119   0.000000
    16  H    2.235732   5.064754   1.087154   2.483724   1.815742
    17  C    1.529366   4.514195   1.509578   1.087521   2.242901
    18  H    3.489545   2.483725   4.499573   4.803248   4.501312
    19  H    2.891554   1.815743   2.873471   4.501311   2.209718
    20  C    1.507197   2.235733   2.665659   3.489544   2.891554
    21  H    2.172970   2.483725   3.519013   4.160079   3.851843
                   16         17         18         19         20
    16  H    0.000000
    17  C    2.235732   0.000000
    18  H    5.522332   3.970903   0.000000
    19  H    3.806388   3.426449   3.106120   0.000000
    20  C    3.554163   2.629764   2.222044   2.242900   0.000000
    21  H    4.249892   3.473863   2.455118   3.106120   1.087523
                   21
    21  H    0.000000
 This structure is nearly, but not quite of a higher symmetry.
 Consider Symm=Loose if the higher symmetry is desired.
 Stoichiometry    C9H12
 Framework group  C1[X(C9H12)]
 Deg. of freedom    57
 Full point group                 C1      NOp   1
 Largest Abelian subgroup         C1      NOp   1
 Largest concise Abelian subgroup C1      NOp   1
                         Standard orientation:                         
 ---------------------------------------------------------------------
 Center     Atomic      Atomic             Coordinates (Angstroms)
 Number     Number       Type             X           Y           Z
 ---------------------------------------------------------------------
      1          1           0       -0.895262   -2.073644    1.335552
      2          6           0       -0.501930   -1.121546    0.986976
      3          6           0       -0.214545    1.784843   -0.876883
      4          6           0       -1.009027    0.094124    1.724420
      5          1           0       -2.541975   -0.582333    0.290595
      6          1           0       -0.336559    0.935510    1.865486
      7          1           0       -1.683303   -0.063109    2.562593
      8          6           0       -1.527716   -0.192564    0.336041
      9          6           0       -1.153817    0.603121   -0.888184
     10          1           0        1.871262   -0.964215   -1.566479
     11          6           0        1.262286   -0.433986   -0.837982
     12          1           0       -0.426861    2.610697   -1.551267
     13          6           0        1.933510   -0.160497    0.486211
     14          1           0        1.262207   -2.260331    0.427696
     15          1           0        1.693734    0.759826    1.011145
     16          1           0        2.970203   -0.465782    0.604414
     17          6           0        0.882887   -1.241376    0.404250
     18          1           0       -1.959460    0.657302   -1.616681
     19          1           0        0.211618    2.102073    0.070636
     20          6           0        0.251368    0.481530   -1.479480
     21          1           0        0.296308    0.462108   -2.565900
 ---------------------------------------------------------------------
 Rotational constants (GHZ):           2.2062252           2.2062242           1.4247629
 Leave Link  202 at Thu Jan 12 23:36:52 2023, MaxMem=  1073741824 cpu:               0.0 elap:               0.0
 (Enter /public/home/zyli/senxu/soft/g16/l301.exe)
 Standard basis: 6-31G(d) (6D, 7F)
 Ernie: Thresh=  0.10000D-02 Tol=  0.10000D-05 Strict=F.
 There are   159 symmetry adapted cartesian basis functions of A   symmetry.
 There are   159 symmetry adapted basis functions of A   symmetry.
   159 basis functions,   300 primitive gaussians,   159 cartesian basis functions
    33 alpha electrons       33 beta electrons
       nuclear repulsion energy       453.6701997391 Hartrees.
 IExCor=    0 DFT=F Ex=HF Corr=None ExCW=0 ScaHFX=  1.000000
 ScaDFX=  1.000000  1.000000  1.000000  1.000000 ScalE2=  1.000000  1.000000
 IRadAn=      5 IRanWt=     -1 IRanGd=            0 ICorTp=0 IEmpDi=  4
 NAtoms=   21 NActive=   21 NUniq=   21 SFac= 1.00D+00 NAtFMM=   60 NAOKFM=F Big=F
 Integral buffers will be    131072 words long.
 Raffenetti 1 integral format.
 Two-electron integral symmetry is turned on.
 Leave Link  301 at Thu Jan 12 23:36:52 2023, MaxMem=  1073741824 cpu:               0.4 elap:               0.0
 (Enter /public/home/zyli/senxu/soft/g16/l302.exe)
 NPDir=0 NMtPBC=     1 NCelOv=     1 NCel=       1 NClECP=     1 NCelD=      1
         NCelK=      1 NCelE2=     1 NClLst=     1 CellRange=     0.0.
 One-electron integrals computed using PRISM.
 One-electron integral symmetry used in STVInt
 NBasis=   159 RedAO= T EigKep=  1.40D-03  NBF=   159
 NBsUse=   159 1.00D-06 EigRej= -1.00D+00 NBFU=   159
 Leave Link  302 at Thu Jan 12 23:36:52 2023, MaxMem=  1073741824 cpu:               1.1 elap:               0.1
 (Enter /public/home/zyli/senxu/soft/g16/l303.exe)
 DipDrv:  MaxL=1.
 Leave Link  303 at Thu Jan 12 23:36:52 2023, MaxMem=  1073741824 cpu:               0.3 elap:               0.0
 (Enter /public/home/zyli/senxu/soft/g16/l401.exe)
 ExpMin= 1.61D-01 ExpMax= 3.05D+03 ExpMxC= 4.57D+02 IAcc=3 IRadAn=         5 AccDes= 0.00D+00
 Harris functional with IExCor=  205 and IRadAn=       5 diagonalized for initial guess.
 HarFok:  IExCor=  205 AccDes= 0.00D+00 IRadAn=         5 IDoV= 1 UseB2=F ITyADJ=14
 ICtDFT=  3500011 ScaDFX=  1.000000  1.000000  1.000000  1.000000
 FoFCou: FMM=F IPFlag=           0 FMFlag=      100000 FMFlg1=           0
         NFxFlg=           0 DoJE=T BraDBF=F KetDBF=T FulRan=T
         wScrn=  0.000000 ICntrl=       500 IOpCl=  0 I1Cent=   200000004 NGrid=           0
         NMat0=    1 NMatS0=      1 NMatT0=    0 NMatD0=    1 NMtDS0=    0 NMtDT0=    0
 Petite list used in FoFCou.
 Harris En= -348.393252469641    
 JPrj=0 DoOrth=F DoCkMO=F.
 Leave Link  401 at Thu Jan 12 23:36:52 2023, MaxMem=  1073741824 cpu:               4.4 elap:               0.6
 (Enter /public/home/zyli/senxu/soft/g16/l502.exe)
 Integral symmetry usage will be decided dynamically.
 Closed shell SCF:
 Using DIIS extrapolation, IDIIS=  1040.
 NGot=  1073741824 LenX=  1073687517 LenY=  1073661795
 Requested convergence on RMS density matrix=1.00D-08 within 128 cycles.
 Requested convergence on MAX density matrix=1.00D-06.
 Requested convergence on             energy=1.00D-06.
 No special actions if energy rises.
 Fock matrices will be formed incrementally for  20 cycles.
 Integral accuracy reduced to 1.0D-05 until final iterations.

 Cycle   1  Pass 0  IDiag  1:
 FoFJK:  IHMeth= 1 ICntrl=       0 DoSepK=F KAlg= 0 I1Cent=           0 FoldK=F
 IRaf= 980000000 NMat=       1 IRICut=       1 DoRegI=T DoRafI=F ISym2E= 0 IDoP0=0 IntGTp=1.
 FoFCou: FMM=F IPFlag=           0 FMFlag=      100000 FMFlg1=           0
         NFxFlg=           0 DoJE=F BraDBF=F KetDBF=F FulRan=T
         wScrn=  0.000000 ICntrl=         0 IOpCl=  0 I1Cent=           0 NGrid=           0
         NMat0=    1 NMatS0=      1 NMatT0=    0 NMatD0=    1 NMtDS0=    0 NMtDT0=    0
 Symmetry not used in FoFCou.
 E= -347.270680661091    
 DIIS: error= 6.05D-02 at cycle   1 NSaved=   1.
 NSaved= 1 IEnMin= 1 EnMin= -347.270680661091     IErMin= 1 ErrMin= 6.05D-02
 ErrMax= 6.05D-02  0.00D+00 EMaxC= 1.00D-01 BMatC= 6.18D-01 BMatP= 6.18D-01
 IDIUse=3 WtCom= 3.95D-01 WtEn= 6.05D-01
 Coeff-Com:  0.100D+01
 Coeff-En:   0.100D+01
 Coeff:      0.100D+01
 Gap=     0.639 Goal=   None    Shift=    0.000
 GapD=    0.639 DampG=2.000 DampE=0.500 DampFc=1.0000 IDamp=-1.
 RMSDP=5.39D-03 MaxDP=9.77D-02              OVMax= 1.23D-01

 Cycle   2  Pass 0  IDiag  1:
 RMSU=  5.24D-03    CP:  9.49D-01
 E= -347.613647986746     Delta-E=       -0.342967325655 Rises=F Damp=F
 DIIS: error= 1.44D-02 at cycle   2 NSaved=   2.
 NSaved= 2 IEnMin= 2 EnMin= -347.613647986746     IErMin= 2 ErrMin= 1.44D-02
 ErrMax= 1.44D-02  0.00D+00 EMaxC= 1.00D-01 BMatC= 8.53D-02 BMatP= 6.18D-01
 IDIUse=3 WtCom= 8.56D-01 WtEn= 1.44D-01
 Coeff-Com:  0.199D+00 0.801D+00
 Coeff-En:   0.000D+00 0.100D+01
 Coeff:      0.170D+00 0.830D+00
 Gap=     0.580 Goal=   None    Shift=    0.000
 RMSDP=3.18D-03 MaxDP=3.06D-02 DE=-3.43D-01 OVMax= 5.40D-02

 Cycle   3  Pass 0  IDiag  1:
 RMSU=  2.50D-03    CP:  9.68D-01  6.38D-01
 E= -347.685635995691     Delta-E=       -0.071988008945 Rises=F Damp=F
 DIIS: error= 7.28D-03 at cycle   3 NSaved=   3.
 NSaved= 3 IEnMin= 3 EnMin= -347.685635995691     IErMin= 3 ErrMin= 7.28D-03
 ErrMax= 7.28D-03  0.00D+00 EMaxC= 1.00D-01 BMatC= 8.00D-03 BMatP= 8.53D-02
 IDIUse=3 WtCom= 9.27D-01 WtEn= 7.28D-02
 Coeff-Com: -0.215D-01 0.205D+00 0.817D+00
 Coeff-En:   0.000D+00 0.000D+00 0.100D+01
 Coeff:     -0.199D-01 0.190D+00 0.830D+00
 Gap=     0.555 Goal=   None    Shift=    0.000
 RMSDP=6.54D-04 MaxDP=7.25D-03 DE=-7.20D-02 OVMax= 1.59D-02

 Cycle   4  Pass 0  IDiag  1:
 RMSU=  2.69D-04    CP:  9.63D-01  7.24D-01  8.50D-01
 E= -347.693247922764     Delta-E=       -0.007611927073 Rises=F Damp=F
 DIIS: error= 7.70D-04 at cycle   4 NSaved=   4.
 NSaved= 4 IEnMin= 4 EnMin= -347.693247922764     IErMin= 4 ErrMin= 7.70D-04
 ErrMax= 7.70D-04  0.00D+00 EMaxC= 1.00D-01 BMatC= 1.18D-04 BMatP= 8.00D-03
 IDIUse=3 WtCom= 9.92D-01 WtEn= 7.70D-03
 Coeff-Com: -0.560D-02 0.932D-02 0.115D+00 0.881D+00
 Coeff-En:   0.000D+00 0.000D+00 0.000D+00 0.100D+01
 Coeff:     -0.556D-02 0.924D-02 0.114D+00 0.882D+00
 Gap=     0.556 Goal=   None    Shift=    0.000
 RMSDP=1.64D-04 MaxDP=2.11D-03 DE=-7.61D-03 OVMax= 2.51D-03

 Cycle   5  Pass 0  IDiag  1:
 RMSU=  7.17D-05    CP:  9.64D-01  7.18D-01  9.07D-01  9.58D-01
 E= -347.693390061705     Delta-E=       -0.000142138941 Rises=F Damp=F
 DIIS: error= 2.70D-04 at cycle   5 NSaved=   5.
 NSaved= 5 IEnMin= 5 EnMin= -347.693390061705     IErMin= 5 ErrMin= 2.70D-04
 ErrMax= 2.70D-04  0.00D+00 EMaxC= 1.00D-01 BMatC= 1.04D-05 BMatP= 1.18D-04
 IDIUse=3 WtCom= 9.97D-01 WtEn= 2.70D-03
 Coeff-Com:  0.112D-02-0.126D-01-0.493D-01 0.595D-01 0.100D+01
 Coeff-En:   0.000D+00 0.000D+00 0.000D+00 0.000D+00 0.100D+01
 Coeff:      0.112D-02-0.126D-01-0.492D-01 0.594D-01 0.100D+01
 Gap=     0.556 Goal=   None    Shift=    0.000
 RMSDP=4.70D-05 MaxDP=5.46D-04 DE=-1.42D-04 OVMax= 9.53D-04

 Cycle   6  Pass 0  IDiag  1:
 RMSU=  2.56D-05    CP:  9.64D-01  7.18D-01  9.19D-01  1.03D+00  1.23D+00
 E= -347.693406476674     Delta-E=       -0.000016414969 Rises=F Damp=F
 DIIS: error= 6.78D-05 at cycle   6 NSaved=   6.
 NSaved= 6 IEnMin= 6 EnMin= -347.693406476674     IErMin= 6 ErrMin= 6.78D-05
 ErrMax= 6.78D-05  0.00D+00 EMaxC= 1.00D-01 BMatC= 8.73D-07 BMatP= 1.04D-05
 IDIUse=1 WtCom= 1.00D+00 WtEn= 0.00D+00
 Coeff-Com:  0.703D-03-0.343D-02-0.206D-01-0.707D-01 0.182D+00 0.912D+00
 Coeff:      0.703D-03-0.343D-02-0.206D-01-0.707D-01 0.182D+00 0.912D+00
 Gap=     0.556 Goal=   None    Shift=    0.000
 RMSDP=1.40D-05 MaxDP=1.94D-04 DE=-1.64D-05 OVMax= 3.94D-04

 Cycle   7  Pass 0  IDiag  1:
 RMSU=  5.26D-06    CP:  9.64D-01  7.18D-01  9.23D-01  1.04D+00  1.35D+00
                    CP:  1.01D+00
 E= -347.693407974495     Delta-E=       -0.000001497820 Rises=F Damp=F
 DIIS: error= 1.36D-05 at cycle   7 NSaved=   7.
 NSaved= 7 IEnMin= 7 EnMin= -347.693407974495     IErMin= 7 ErrMin= 1.36D-05
 ErrMax= 1.36D-05  0.00D+00 EMaxC= 1.00D-01 BMatC= 2.60D-08 BMatP= 8.73D-07
 IDIUse=1 WtCom= 1.00D+00 WtEn= 0.00D+00
 Coeff-Com: -0.334D-04 0.453D-03 0.166D-02-0.359D-02-0.431D-01 0.873D-02
 Coeff-Com:  0.104D+01
 Coeff:     -0.334D-04 0.453D-03 0.166D-02-0.359D-02-0.431D-01 0.873D-02
 Coeff:      0.104D+01
 Gap=     0.557 Goal=   None    Shift=    0.000
 RMSDP=3.59D-06 MaxDP=4.13D-05 DE=-1.50D-06 OVMax= 8.59D-05

 Initial convergence to 1.0D-05 achieved.  Increase integral accuracy.
 Cycle   8  Pass 1  IDiag  1:
 E= -347.693412594415     Delta-E=       -0.000004619921 Rises=F Damp=F
 DIIS: error= 1.51D-05 at cycle   1 NSaved=   1.
 NSaved= 1 IEnMin= 1 EnMin= -347.693412594415     IErMin= 1 ErrMin= 1.51D-05
 ErrMax= 1.51D-05  0.00D+00 EMaxC= 1.00D-01 BMatC= 1.41D-08 BMatP= 1.41D-08
 IDIUse=1 WtCom= 1.00D+00 WtEn= 0.00D+00
 Coeff-Com:  0.100D+01
 Coeff:      0.100D+01
 Gap=     0.557 Goal=   None    Shift=    0.000
 RMSDP=3.59D-06 MaxDP=4.13D-05 DE=-4.62D-06 OVMax= 2.04D-05

 Cycle   9  Pass 1  IDiag  1:
 RMSU=  9.20D-07    CP:  1.00D+00
 E= -347.693412600673     Delta-E=       -0.000000006257 Rises=F Damp=F
 DIIS: error= 1.35D-06 at cycle   2 NSaved=   2.
 NSaved= 2 IEnMin= 2 EnMin= -347.693412600673     IErMin= 2 ErrMin= 1.35D-06
 ErrMax= 1.35D-06  0.00D+00 EMaxC= 1.00D-01 BMatC= 2.23D-10 BMatP= 1.41D-08
 IDIUse=1 WtCom= 1.00D+00 WtEn= 0.00D+00
 Coeff-Com: -0.351D-01 0.104D+01
 Coeff:     -0.351D-01 0.104D+01
 Gap=     0.557 Goal=   None    Shift=    0.000
 RMSDP=2.91D-07 MaxDP=3.92D-06 DE=-6.26D-09 OVMax= 8.33D-06

 Cycle  10  Pass 1  IDiag  1:
 RMSU=  2.14D-07    CP:  1.00D+00  1.21D+00
 E= -347.693412601249     Delta-E=       -0.000000000577 Rises=F Damp=F
 DIIS: error= 4.77D-07 at cycle   3 NSaved=   3.
 NSaved= 3 IEnMin= 3 EnMin= -347.693412601249     IErMin= 3 ErrMin= 4.77D-07
 ErrMax= 4.77D-07  0.00D+00 EMaxC= 1.00D-01 BMatC= 3.33D-11 BMatP= 2.23D-10
 IDIUse=1 WtCom= 1.00D+00 WtEn= 0.00D+00
 Coeff-Com: -0.179D-02-0.296D+00 0.130D+01
 Coeff:     -0.179D-02-0.296D+00 0.130D+01
 Gap=     0.557 Goal=   None    Shift=    0.000
 RMSDP=1.30D-07 MaxDP=1.74D-06 DE=-5.77D-10 OVMax= 4.31D-06

 Cycle  11  Pass 1  IDiag  1:
 RMSU=  5.28D-08    CP:  1.00D+00  1.31D+00  1.37D+00
 E= -347.693412601344     Delta-E=       -0.000000000095 Rises=F Damp=F
 DIIS: error= 1.87D-07 at cycle   4 NSaved=   4.
 NSaved= 4 IEnMin= 4 EnMin= -347.693412601344     IErMin= 4 ErrMin= 1.87D-07
 ErrMax= 1.87D-07  0.00D+00 EMaxC= 1.00D-01 BMatC= 5.01D-12 BMatP= 3.33D-11
 IDIUse=1 WtCom= 1.00D+00 WtEn= 0.00D+00
 Coeff-Com:  0.372D-02-0.203D+00 0.350D+00 0.849D+00
 Coeff:      0.372D-02-0.203D+00 0.350D+00 0.849D+00
 Gap=     0.557 Goal=   None    Shift=    0.000
 RMSDP=4.40D-08 MaxDP=5.92D-07 DE=-9.53D-11 OVMax= 1.18D-06

 Cycle  12  Pass 1  IDiag  1:
 RMSU=  9.70D-09    CP:  1.00D+00  1.33D+00  1.55D+00  8.89D-01
 E= -347.693412601354     Delta-E=       -0.000000000009 Rises=F Damp=F
 DIIS: error= 2.68D-08 at cycle   5 NSaved=   5.
 NSaved= 5 IEnMin= 5 EnMin= -347.693412601354     IErMin= 5 ErrMin= 2.68D-08
 ErrMax= 2.68D-08  0.00D+00 EMaxC= 1.00D-01 BMatC= 7.87D-14 BMatP= 5.01D-12
 IDIUse=1 WtCom= 1.00D+00 WtEn= 0.00D+00
 Coeff-Com:  0.179D-03 0.339D-02-0.340D-01 0.108D-01 0.102D+01
 Coeff:      0.179D-03 0.339D-02-0.340D-01 0.108D-01 0.102D+01
 Gap=     0.557 Goal=   None    Shift=    0.000
 RMSDP=4.42D-09 MaxDP=5.82D-08 DE=-9.09D-12 OVMax= 1.32D-07

 SCF Done:  E(RHF) =  -347.693412601     A.U. after   12 cycles
            NFock= 12  Conv=0.44D-08     -V/T= 2.0016
 KE= 3.471359958716D+02 PE=-1.716152882768D+03 EE= 5.676532745560D+02
 Leave Link  502 at Thu Jan 12 23:36:56 2023, MaxMem=  1073741824 cpu:              25.1 elap:               3.1
 (Enter /public/home/zyli/senxu/soft/g16/l601.exe)
 Copying SCF densities to generalized density rwf, IOpCl= 0 IROHF=0.

 **********************************************************************

            Population analysis using the SCF Density.

 **********************************************************************

 Orbital symmetries:
       Occupied  (A) (A) (A) (A) (A) (A) (A) (A) (A) (A) (A) (A)
                 (A) (A) (A) (A) (A) (A) (A) (A) (A) (A) (A) (A)
                 (A) (A) (A) (A) (A) (A) (A) (A) (A)
       Virtual   (A) (A) (A) (A) (A) (A) (A) (A) (A) (A) (A) (A)
                 (A) (A) (A) (A) (A) (A) (A) (A) (A) (A) (A) (A)
                 (A) (A) (A) (A) (A) (A) (A) (A) (A) (A) (A) (A)
                 (A) (A) (A) (A) (A) (A) (A) (A) (A) (A) (A) (A)
                 (A) (A) (A) (A) (A) (A) (A) (A) (A) (A) (A) (A)
                 (A) (A) (A) (A) (A) (A) (A) (A) (A) (A) (A) (A)
                 (A) (A) (A) (A) (A) (A) (A) (A) (A) (A) (A) (A)
                 (A) (A) (A) (A) (A) (A) (A) (A) (A) (A) (A) (A)
                 (A) (A) (A) (A) (A) (A) (A) (A) (A) (A) (A) (A)
                 (A) (A) (A) (A) (A) (A) (A) (A) (A) (A) (A) (A)
                 (A) (A) (A) (A) (A) (A)
 The electronic state is 1-A.
 Alpha  occ. eigenvalues --  -11.22767 -11.22740 -11.22739 -11.22675 -11.22675
 Alpha  occ. eigenvalues --  -11.22642 -11.21891 -11.21891 -11.21890  -1.18032
 Alpha  occ. eigenvalues --   -1.10524  -1.10524  -0.87542  -0.87542  -0.86041
 Alpha  occ. eigenvalues --   -0.76438  -0.76438  -0.70404  -0.67100  -0.65196
 Alpha  occ. eigenvalues --   -0.62952  -0.62952  -0.53153  -0.53152  -0.52484
 Alpha  occ. eigenvalues --   -0.48907  -0.48907  -0.48358  -0.44688  -0.44688
 Alpha  occ. eigenvalues --   -0.37243  -0.35171  -0.35171
 Alpha virt. eigenvalues --    0.20479   0.24044   0.26191   0.26191   0.28637
 Alpha virt. eigenvalues --    0.28637   0.32299   0.32299   0.34392   0.34392
 Alpha virt. eigenvalues --    0.34459   0.36411   0.36411   0.36521   0.37892
 Alpha virt. eigenvalues --    0.41351   0.41351   0.44857   0.46138   0.46138
 Alpha virt. eigenvalues --    0.55783   0.57513   0.57513   0.61909   0.66292
 Alpha virt. eigenvalues --    0.69796   0.74948   0.74948   0.78879   0.81820
 Alpha virt. eigenvalues --    0.81820   0.84500   0.85650   0.85651   0.88372
 Alpha virt. eigenvalues --    0.88372   0.88525   0.89913   0.89963   0.89963
 Alpha virt. eigenvalues --    0.92547   0.95393   0.95393   1.00671   1.00671
 Alpha virt. eigenvalues --    1.03011   1.09853   1.09853   1.14798   1.16012
 Alpha virt. eigenvalues --    1.16182   1.16417   1.16417   1.17544   1.17544
 Alpha virt. eigenvalues --    1.19233   1.19233   1.19543   1.24129   1.27867
 Alpha virt. eigenvalues --    1.27867   1.42980   1.43953   1.43953   1.53599
 Alpha virt. eigenvalues --    1.53599   1.61566   1.65471   1.65471   1.73600
 Alpha virt. eigenvalues --    1.79088   1.79088   1.90724   1.96221   1.98943
 Alpha virt. eigenvalues --    1.98943   1.99401   2.00460   2.00460   2.09409
 Alpha virt. eigenvalues --    2.13691   2.13691   2.23297   2.23297   2.25814
 Alpha virt. eigenvalues --    2.25814   2.28821   2.33681   2.37522   2.37522
 Alpha virt. eigenvalues --    2.41881   2.49268   2.49268   2.55673   2.61720
 Alpha virt. eigenvalues --    2.61720   2.64636   2.64636   2.70937   2.70937
 Alpha virt. eigenvalues --    2.72985   2.75441   2.78996   2.82738   2.82738
 Alpha virt. eigenvalues --    2.83624   2.83624   2.98303   3.05197   3.05197
 Alpha virt. eigenvalues --    3.08982   3.08982   3.19476   3.19476   3.20070
 Alpha virt. eigenvalues --    3.33068   3.38049   4.44968   4.73032   4.73032
 Alpha virt. eigenvalues --    4.76280   4.92818   4.92818   5.08283   5.08283
 Alpha virt. eigenvalues --    5.16889
          Condensed to atoms (all electrons):
               1          2          3          4          5          6
     1  H    0.499937   0.398634  -0.000122  -0.023879  -0.004809   0.001472
     2  C    0.398634   5.121310   0.006527   0.237111  -0.024731  -0.026847
     3  C   -0.000122   0.006527   5.220508  -0.011461   0.001630   0.000269
     4  C   -0.023879   0.237111  -0.011461   5.220507  -0.023879   0.394582
     5  H   -0.004809  -0.024731   0.001630  -0.023879   0.499937   0.001472
     6  H    0.001472  -0.026847   0.000269   0.394582   0.001472   0.505021
     7  H   -0.004029  -0.022797   0.000228   0.392920  -0.004029  -0.019293
     8  C   -0.024731   0.277232  -0.033520   0.237111   0.398634  -0.026847
     9  C    0.002291  -0.037891   0.237111  -0.033520  -0.029086  -0.002337
    10  H   -0.000019   0.002291   0.001630  -0.000122  -0.000006  -0.000003
    11  C    0.001722  -0.037891  -0.033520   0.006527   0.000190  -0.000113
    12  H    0.000001  -0.000136   0.392920   0.000228  -0.000033  -0.000036
    13  C    0.001630  -0.033520  -0.011461  -0.011461  -0.000122   0.000269
    14  H   -0.004209  -0.029086  -0.000122   0.001630  -0.000019   0.000055
    15  H    0.000055  -0.002337   0.000269   0.000269  -0.000003   0.000834
    16  H   -0.000033   0.001616   0.000228   0.000228   0.000001  -0.000036
    17  C   -0.029086   0.365070   0.006527  -0.033520   0.002291  -0.002337
    18  H   -0.000019   0.001722  -0.023879   0.001630  -0.004209   0.000055
    19  H   -0.000003  -0.000113   0.394582   0.000269   0.000055   0.000834
    20  C    0.000190  -0.015961   0.237111   0.006527   0.001722  -0.000113
    21  H   -0.000006   0.000190  -0.023879  -0.000122  -0.000019  -0.000003
               7          8          9         10         11         12
     1  H   -0.004029  -0.024731   0.002291  -0.000019   0.001722   0.000001
     2  C   -0.022797   0.277232  -0.037891   0.002291  -0.037891  -0.000136
     3  C    0.000228  -0.033520   0.237111   0.001630  -0.033520   0.392920
     4  C    0.392920   0.237111  -0.033520  -0.000122   0.006527   0.000228
     5  H   -0.004029   0.398634  -0.029086  -0.000006   0.000190  -0.000033
     6  H   -0.019293  -0.026847  -0.002337  -0.000003  -0.000113  -0.000036
     7  H    0.497515  -0.022797   0.001616   0.000001  -0.000136  -0.000002
     8  C   -0.022797   5.121310   0.365070   0.000190  -0.015961   0.001616
     9  C    0.001616   0.365070   5.121309   0.001722  -0.037891  -0.022797
    10  H    0.000001   0.000190   0.001722   0.499937   0.398634  -0.000033
    11  C   -0.000136  -0.015961  -0.037891   0.398634   5.121309   0.001616
    12  H   -0.000002   0.001616  -0.022797  -0.000033   0.001616   0.497515
    13  C    0.000228   0.006527   0.006527  -0.023879   0.237111   0.000228
    14  H   -0.000033   0.001722   0.000190  -0.004809  -0.024731   0.000001
    15  H   -0.000036  -0.000113  -0.000113   0.001472  -0.026847  -0.000036
    16  H   -0.000002  -0.000136  -0.000136  -0.004029  -0.022797  -0.000002
    17  C    0.001616  -0.037891  -0.015961  -0.024731   0.277232  -0.000136
    18  H   -0.000033  -0.029086   0.398634  -0.000019   0.002291  -0.004029
    19  H   -0.000036  -0.002337  -0.026847   0.000055  -0.002337  -0.019293
    20  C   -0.000136  -0.037891   0.277232  -0.029086   0.365070  -0.022797
    21  H    0.000001   0.002291  -0.024731  -0.004209  -0.029086  -0.004029
              13         14         15         16         17         18
     1  H    0.001630  -0.004209   0.000055  -0.000033  -0.029086  -0.000019
     2  C   -0.033520  -0.029086  -0.002337   0.001616   0.365070   0.001722
     3  C   -0.011461  -0.000122   0.000269   0.000228   0.006527  -0.023879
     4  C   -0.011461   0.001630   0.000269   0.000228  -0.033520   0.001630
     5  H   -0.000122  -0.000019  -0.000003   0.000001   0.002291  -0.004209
     6  H    0.000269   0.000055   0.000834  -0.000036  -0.002337   0.000055
     7  H    0.000228  -0.000033  -0.000036  -0.000002   0.001616  -0.000033
     8  C    0.006527   0.001722  -0.000113  -0.000136  -0.037891  -0.029086
     9  C    0.006527   0.000190  -0.000113  -0.000136  -0.015961   0.398634
    10  H   -0.023879  -0.004809   0.001472  -0.004029  -0.024731  -0.000019
    11  C    0.237111  -0.024731  -0.026847  -0.022797   0.277232   0.002291
    12  H    0.000228   0.000001  -0.000036  -0.000002  -0.000136  -0.004029
    13  C    5.220508  -0.023879   0.394582   0.392920   0.237111  -0.000122
    14  H   -0.023879   0.499937   0.001472  -0.004029   0.398634  -0.000006
    15  H    0.394582   0.001472   0.505021  -0.019293  -0.026847  -0.000003
    16  H    0.392920  -0.004029  -0.019293   0.497515  -0.022797   0.000001
    17  C    0.237111   0.398634  -0.026847  -0.022797   5.121309   0.000190
    18  H   -0.000122  -0.000006  -0.000003   0.000001   0.000190   0.499936
    19  H    0.000269  -0.000003   0.000834  -0.000036  -0.000113   0.001472
    20  C   -0.033520   0.002291  -0.002337   0.001616  -0.037891  -0.024731
    21  H    0.001630  -0.000019   0.000055  -0.000033   0.001722  -0.004809
              19         20         21
     1  H   -0.000003   0.000190  -0.000006
     2  C   -0.000113  -0.015961   0.000190
     3  C    0.394582   0.237111  -0.023879
     4  C    0.000269   0.006527  -0.000122
     5  H    0.000055   0.001722  -0.000019
     6  H    0.000834  -0.000113  -0.000003
     7  H   -0.000036  -0.000136   0.000001
     8  C   -0.002337  -0.037891   0.002291
     9  C   -0.026847   0.277232  -0.024731
    10  H    0.000055  -0.029086  -0.004209
    11  C   -0.002337   0.365070  -0.029086
    12  H   -0.019293  -0.022797  -0.004029
    13  C    0.000269  -0.033520   0.001630
    14  H   -0.000003   0.002291  -0.000019
    15  H    0.000834  -0.002337   0.000055
    16  H   -0.000036   0.001616  -0.000033
    17  C   -0.000113  -0.037891   0.001722
    18  H    0.001472  -0.024731  -0.004809
    19  H    0.505021  -0.026847   0.001472
    20  C   -0.026847   5.121310   0.398634
    21  H    0.001472   0.398634   0.499937
 Mulliken charges:
               1
     1  H    0.185014
     2  C   -0.180395
     3  C   -0.361575
     4  C   -0.361575
     5  H    0.185014
     6  H    0.173103
     7  H    0.179233
     8  C   -0.180395
     9  C   -0.180394
    10  H    0.185014
    11  C   -0.180394
    12  H    0.179233
    13  C   -0.361575
    14  H    0.185014
    15  H    0.173103
    16  H    0.179233
    17  C   -0.180395
    18  H    0.185014
    19  H    0.173103
    20  C   -0.180394
    21  H    0.185014
 Sum of Mulliken charges =  -0.00000
 Mulliken charges with hydrogens summed into heavy atoms:
               1
     2  C    0.004619
     3  C   -0.009239
     4  C   -0.009239
     8  C    0.004619
     9  C    0.004620
    11  C    0.004620
    13  C   -0.009239
    17  C    0.004619
    20  C    0.004619
 Electronic spatial extent (au):  <R**2>=            994.1725
 Charge=             -0.0000 electrons
 Dipole moment (field-independent basis, Debye):
    X=             -0.1142    Y=             -0.2765    Z=             -0.2146  Tot=              0.3682
 Quadrupole moment (field-independent basis, Debye-Ang):
   XX=            -54.3680   YY=            -54.6122   ZZ=            -54.4951
   XY=             -0.1216   XZ=             -0.0944   YZ=             -0.2285
 Traceless Quadrupole moment (field-independent basis, Debye-Ang):
   XX=              0.1237   YY=             -0.1204   ZZ=             -0.0033
   XY=             -0.1216   XZ=             -0.0944   YZ=             -0.2285
 Octapole moment (field-independent basis, Debye-Ang**2):
  XXX=             -1.1547  YYY=             -2.8198  ZZZ=             -6.7429  XYY=              1.9026
  XXY=             -6.6548  XXZ=              0.1674  XZZ=             -3.4912  YZZ=              2.8343
  YYZ=              1.4219  XYZ=              4.9879
 Hexadecapole moment (field-independent basis, Debye-Ang**3):
 XXXX=           -518.0868 YYYY=           -360.3590 ZZZZ=           -441.9646 XXXY=             38.8979
 XXXZ=             35.4226 YYYX=             39.5207 YYYZ=             69.1337 ZZZX=             23.1163
 ZZZY=             76.7605 XXYY=           -153.9355 XXZZ=           -160.2122 YYZZ=           -134.6447
 XXYZ=             25.6417 YYXZ=             12.3264 ZZXY=             12.8878
 N-N= 4.536701997391D+02 E-N=-1.716152878970D+03  KE= 3.471359958716D+02
 No NMR shielding tensors so no spin-rotation constants.
 Leave Link  601 at Thu Jan 12 23:36:56 2023, MaxMem=  1073741824 cpu:               0.8 elap:               0.1
 (Enter /public/home/zyli/senxu/soft/g16/l9999.exe)
 Unable to Open any file for archive entry.
 1\1\GINC-NODE100\SP\RHF\6-31G(d)\C9H12\XZZENG\12-Jan-2023\0\\#p RHF/6-
 31g(d)\\title\\0,1\H,0,0.,0.,0.\C,0,0.,0.,1.087522\C,0,1.211746,0.,4.3
 3334\C,0,-0.065187,1.363516,1.732037\H,0,1.994644,0.978297,1.044957\H,
 0,-0.608089,1.472137,2.66665\H,0,-0.149889,2.230695,1.08186\C,0,1.2425
 24,0.60941,1.738458\C,0,1.843474,-0.032288,2.962682\H,0,0.007429,-2.98
 0676,2.902031\C,0,-0.013773,-1.893411,2.91248\H,0,1.869531,0.074348,5.
 195719\C,0,-1.390168,-1.276139,2.970246\H,0,-0.971476,-1.935396,0.9078
 56\H,0,-1.5223,-0.349174,3.52099\H,0,-2.245294,-1.943816,3.040038\C,0,
 -0.623562,-1.242275,1.670248\H,0,2.930891,-0.021434,2.952233\H,0,0.272
 971,0.531337,4.461499\C,0,1.210739,-1.292834,3.553979\H,0,1.915152,-2.
 045011,3.901452\\Version=ES64L-G16RevC.01\State=1-A\HF=-347.6934126\RM
 SD=4.423e-09\Dipole=0.0844505,-0.0819976,-0.084436\Quadrupole=-0.00253
 45,0.0050244,-0.00249,0.1280559,0.1318631,-0.1280315\PG=C01 [X(C9H12)]
 \\@
 The archive entry for this job was punched.


 Sacred cows make the best hamburger.
                               -- Mark Twain
 Job cpu time:       0 days  0 hours  0 minutes 34.6 seconds.
 Elapsed time:       0 days  0 hours  0 minutes  4.3 seconds.
 File lengths (MBytes):  RWF=     20 Int=      0 D2E=      0 Chk=      3 Scr=      1
 Normal termination of Gaussian 16 at Thu Jan 12 23:36:56 2023.
 Initial command:
 /public/home/zyli/senxu/soft/g16/l1.exe "/tmp/Gau-9179.inp" -scrdir="/tmp/"
 Entering Link 1 = /public/home/zyli/senxu/soft/g16/l1.exe PID=      9281.
  
 Copyright (c) 1988-2019, Gaussian, Inc.  All Rights Reserved.
  
 This is part of the Gaussian(R) 16 program.  It is based on
 the Gaussian(R) 09 system (copyright 2009, Gaussian, Inc.),
 the Gaussian(R) 03 system (copyright 2003, Gaussian, Inc.),
 the Gaussian(R) 98 system (copyright 1998, Gaussian, Inc.),
 the Gaussian(R) 94 system (copyright 1995, Gaussian, Inc.),
 the Gaussian 92(TM) system (copyright 1992, Gaussian, Inc.),
 the Gaussian 90(TM) system (copyright 1990, Gaussian, Inc.),
 the Gaussian 88(TM) system (copyright 1988, Gaussian, Inc.),
 the Gaussian 86(TM) system (copyright 1986, Carnegie Mellon
 University), and the Gaussian 82(TM) system (copyright 1983,
 Carnegie Mellon University). Gaussian is a federally registered
 trademark of Gaussian, Inc.
  
 This software contains proprietary and confidential information,
 including trade secrets, belonging to Gaussian, Inc.
  
 This software is provided under written license and may be
 used, copied, transmitted, or stored only in accord with that
 written license.
  
 The following legend is applicable only to US Government
 contracts under FAR:
  
                    RESTRICTED RIGHTS LEGEND
  
 Use, reproduction and disclosure by the US Government is
 subject to restrictions as set forth in subparagraphs (a)
 and (c) of the Commercial Computer Software - Restricted
 Rights clause in FAR 52.227-19.
  
 Gaussian, Inc.
 340 Quinnipiac St., Bldg. 40, Wallingford CT 06492
  
  
 ---------------------------------------------------------------
 Warning -- This program may not be used in any manner that
 competes with the business of Gaussian, Inc. or will provide
 assistance to any competitor of Gaussian, Inc.  The licensee
 of this program is prohibited from giving any competitor of
 Gaussian, Inc. access to this program.  By using this program,
 the user acknowledges that Gaussian, Inc. is engaged in the
 business of creating and licensing software in the field of
 computational chemistry and represents and warrants to the
 licensee that it is not a competitor of Gaussian, Inc. and that
 it will not use this program in any manner prohibited above.
 ---------------------------------------------------------------
  

 Cite this work as:
 Gaussian 16, Revision C.01,
 M. J. Frisch, G. W. Trucks, H. B. Schlegel, G. E. Scuseria, 
 M. A. Robb, J. R. Cheeseman, G. Scalmani, V. Barone, 
 G. A. Petersson, H. Nakatsuji, X. Li, M. Caricato, A. V. Marenich, 
 J. Bloino, B. G. Janesko, R. Gomperts, B. Mennucci, H. P. Hratchian, 
 J. V. Ortiz, A. F. Izmaylov, J. L. Sonnenberg, D. Williams-Young, 
 F. Ding, F. Lipparini, F. Egidi, J. Goings, B. Peng, A. Petrone, 
 T. Henderson, D. Ranasinghe, V. G. Zakrzewski, J. Gao, N. Rega, 
 G. Zheng, W. Liang, M. Hada, M. Ehara, K. Toyota, R. Fukuda, 
 J. Hasegawa, M. Ishida, T. Nakajima, Y. Honda, O. Kitao, H. Nakai, 
 T. Vreven, K. Throssell, J. A. Montgomery, Jr., J. E. Peralta, 
 F. Ogliaro, M. J. Bearpark, J. J. Heyd, E. N. Brothers, K. N. Kudin, 
 V. N. Staroverov, T. A. Keith, R. Kobayashi, J. Normand, 
 K. Raghavachari, A. P. Rendell, J. C. Burant, S. S. Iyengar, 
 J. Tomasi, M. Cossi, J. M. Millam, M. Klene, C. Adamo, R. Cammi, 
 J. W. Ochterski, R. L. Martin, K. Morokuma, O. Farkas, 
 J. B. Foresman, and D. J. Fox, Gaussian, Inc., Wallingford CT, 2019.
 
 ******************************************
 Gaussian 16:  ES64L-G16RevC.01  3-Jul-2019
                12-Jan-2023 
 ******************************************
 %chk=is_6-31gd.chk
 %mem=2GB
 %nprocshared=4
 Will use up to    4 processors via shared memory.
 ----------------------------------------------------------
 #p RHF/6-31G(d) guess=(read,local,only,save) geom=allcheck
 ----------------------------------------------------------
 1/29=7,38=1,172=1/1;
 2/12=2,40=1/2;
 3/5=1,6=6,7=1,11=1,14=-4,25=1,30=1,89=1,116=1/1,2,3;
 4/5=1,9=10/1;
 6/7=3,28=1/1;
 99/5=5/99;
 Leave Link    1 at Thu Jan 12 23:36:56 2023, MaxMem=   268435456 cpu:               0.1 elap:               0.0
 (Enter /public/home/zyli/senxu/soft/g16/l101.exe)
 Structure from the checkpoint file:  "is_6-31gd.chk"
 -----
 title
 -----
 Charge =  0 Multiplicity = 1
 Z-Matrix found in chk file.
 H,0,0.,0.,0.
 C,0,0.,0.,1.087522
 C,0,1.211746,0.,4.33334
 C,0,-0.065187,1.363516,1.732037
 H,0,1.994644,0.978297,1.044957
 H,0,-0.608089,1.472137,2.66665
 H,0,-0.149889,2.230695,1.08186
 C,0,1.242524,0.60941,1.738458
 C,0,1.843474,-0.032288,2.962682
 H,0,0.007429,-2.980676,2.902031
 C,0,-0.013773,-1.893411,2.91248
 H,0,1.869531,0.074348,5.195719
 C,0,-1.390168,-1.276139,2.970246
 H,0,-0.971476,-1.935396,0.907856
 H,0,-1.5223,-0.349174,3.52099
 H,0,-2.245294,-1.943816,3.040038
 C,0,-0.623562,-1.242275,1.670248
 H,0,2.930891,-0.021434,2.952233
 H,0,0.272971,0.531337,4.461499
 C,0,1.210739,-1.292834,3.553979
 H,0,1.915152,-2.045011,3.901452
 Recover connectivity data from disk.
 ITRead=  0  0  0  0  0  0  0  0  0  0  0  0  0  0  0  0  0  0  0  0
 ITRead=  0
 MicOpt= -1 -1 -1 -1 -1 -1 -1 -1 -1 -1 -1 -1 -1 -1 -1 -1 -1 -1 -1 -1
 MicOpt= -1
 NAtoms=     21 NQM=       21 NQMF=       0 NMMI=      0 NMMIF=      0
                NMic=       0 NMicF=      0.
                    Isotopes and Nuclear Properties:
 (Nuclear quadrupole moments (NQMom) in fm**2, nuclear magnetic moments (NMagM)
  in nuclear magnetons)

  Atom         1           2           3           4           5           6           7           8           9          10
 IAtWgt=           1          12          12          12           1           1           1          12          12           1
 AtmWgt=   1.0078250  12.0000000  12.0000000  12.0000000   1.0078250   1.0078250   1.0078250  12.0000000  12.0000000   1.0078250
 NucSpn=           1           0           0           0           1           1           1           0           0           1
 AtZEff=   1.0000000   3.6000000   3.6000000   3.6000000   1.0000000   1.0000000   1.0000000   3.6000000   3.6000000   1.0000000
 NQMom=    0.0000000   0.0000000   0.0000000   0.0000000   0.0000000   0.0000000   0.0000000   0.0000000   0.0000000   0.0000000
 NMagM=    2.7928460   0.0000000   0.0000000   0.0000000   2.7928460   2.7928460   2.7928460   0.0000000   0.0000000   2.7928460
 AtZNuc=   1.0000000   6.0000000   6.0000000   6.0000000   1.0000000   1.0000000   1.0000000   6.0000000   6.0000000   1.0000000

  Atom        11          12          13          14          15          16          17          18          19          20
 IAtWgt=          12           1          12           1           1           1          12           1           1          12
 AtmWgt=  12.0000000   1.0078250  12.0000000   1.0078250   1.0078250   1.0078250  12.0000000   1.0078250   1.0078250  12.0000000
 NucSpn=           0           1           0           1           1           1           0           1           1           0
 AtZEff=   3.6000000   1.0000000   3.6000000   1.0000000   1.0000000   1.0000000   3.6000000   1.0000000   1.0000000   3.6000000
 NQMom=    0.0000000   0.0000000   0.0000000   0.0000000   0.0000000   0.0000000   0.0000000   0.0000000   0.0000000   0.0000000
 NMagM=    0.0000000   2.7928460   0.0000000   2.7928460   2.7928460   2.7928460   0.0000000   2.7928460   2.7928460   0.0000000
 AtZNuc=   6.0000000   1.0000000   6.0000000   1.0000000   1.0000000   1.0000000   6.0000000   1.0000000   1.0000000   6.0000000

  Atom        21
 IAtWgt=           1
 AtmWgt=   1.0078250
 NucSpn=           1
 AtZEff=   1.0000000
 NQMom=    0.0000000
 NMagM=    2.7928460
 AtZNuc=   1.0000000
 Leave Link  101 at Thu Jan 12 23:36:56 2023, MaxMem=   268435456 cpu:               0.7 elap:               0.2
 (Enter /public/home/zyli/senxu/soft/g16/l202.exe)
                          Input orientation:                          
 ---------------------------------------------------------------------
 Center     Atomic      Atomic             Coordinates (Angstroms)
 Number     Number       Type             X           Y           Z
 ---------------------------------------------------------------------
      1          1           0       -0.000000    0.000000   -0.000000
      2          6           0       -0.000000    0.000000    1.087522
      3          6           0        1.211746   -0.000000    4.333340
      4          6           0       -0.065187    1.363516    1.732037
      5          1           0        1.994644    0.978297    1.044957
      6          1           0       -0.608089    1.472137    2.666650
      7          1           0       -0.149889    2.230695    1.081860
      8          6           0        1.242524    0.609410    1.738458
      9          6           0        1.843474   -0.032288    2.962682
     10          1           0        0.007429   -2.980676    2.902031
     11          6           0       -0.013773   -1.893411    2.912480
     12          1           0        1.869531    0.074348    5.195719
     13          6           0       -1.390168   -1.276139    2.970246
     14          1           0       -0.971476   -1.935396    0.907856
     15          1           0       -1.522300   -0.349174    3.520990
     16          1           0       -2.245294   -1.943816    3.040038
     17          6           0       -0.623562   -1.242275    1.670248
     18          1           0        2.930891   -0.021434    2.952233
     19          1           0        0.272971    0.531337    4.461499
     20          6           0        1.210739   -1.292834    3.553979
     21          1           0        1.915152   -2.045011    3.901452
 ---------------------------------------------------------------------
                    Distance matrix (angstroms):
                    1          2          3          4          5
     1  H    0.000000
     2  C    1.087522   0.000000
     3  C    4.499574   3.464630   0.000000
     4  C    2.205307   1.509578   3.202579   0.000000
     5  H    2.455118   2.222044   3.519014   2.205306   0.000000
     6  H    3.106120   2.242901   2.873472   1.086298   3.106121
     7  H    2.483725   2.235732   4.171591   1.087154   2.483724
     8  C    2.222045   1.529367   2.665659   1.509578   1.087523
     9  C    3.489545   2.629765   1.509578   2.665660   2.172971
    10  H    4.160080   3.489545   3.519013   4.499574   4.803250
    11  C    3.473865   2.629766   2.665660   3.464630   3.970905
    12  H    5.522334   4.514195   1.087155   4.171592   4.249894
    13  C    3.519014   2.665661   3.202579   3.202579   4.499575
    14  H    2.348132   2.172971   4.499573   3.519013   4.160081
    15  H    3.851842   2.891554   2.873472   2.873471   4.501312
    16  H    4.249894   3.554164   4.171592   4.171592   5.522333
    17  C    2.172971   1.507198   3.464630   2.665661   3.489546
    18  H    4.160079   3.473864   2.205306   3.519012   2.348132
    19  H    4.501312   3.426449   1.086297   2.873471   3.851842
    20  C    3.970904   3.036564   1.509578   3.464629   3.473864
    21  H    4.803249   3.970904   2.205307   4.499573   4.160081
                    6          7          8          9         10
     6  H    0.000000
     7  H    1.815741   0.000000
     8  C    2.242901   2.235733   0.000000
     9  C    2.891555   3.554164   1.507197   0.000000
    10  H    4.501312   5.522333   3.970904   3.473864   0.000000
    11  C    3.426450   4.514194   3.036564   2.629765   1.087522
    12  H    3.806390   5.064753   3.554164   2.235734   4.249894
    13  C    2.873472   4.171592   3.464630   3.464630   2.205307
    14  H    3.851842   4.249894   3.473864   3.970903   2.455117
    15  H    2.209718   3.806388   3.426449   3.426450   3.106120
    16  H    3.806389   5.064753   4.514194   4.514194   2.483724
    17  C    2.891555   3.554165   2.629766   3.036564   2.222043
    18  H    3.851843   4.249892   2.172970   1.087521   4.160080
    19  H    2.209718   3.806388   2.891553   2.242901   3.851842
    20  C    3.426449   4.514193   2.629764   1.529367   2.172971
    21  H    4.501312   5.522332   3.489545   2.222044   2.348131
                   11         12         13         14         15
    11  C    0.000000
    12  H    3.554165   0.000000
    13  C    1.509578   4.171592   0.000000
    14  H    2.222043   5.522333   2.205306   0.000000
    15  H    2.242901   3.806390   1.086297   3.106119   0.000000
    16  H    2.235732   5.064754   1.087154   2.483724   1.815742
    17  C    1.529366   4.514195   1.509578   1.087521   2.242901
    18  H    3.489545   2.483725   4.499573   4.803248   4.501312
    19  H    2.891554   1.815743   2.873471   4.501311   2.209718
    20  C    1.507197   2.235733   2.665659   3.489544   2.891554
    21  H    2.172970   2.483725   3.519013   4.160079   3.851843
                   16         17         18         19         20
    16  H    0.000000
    17  C    2.235732   0.000000
    18  H    5.522332   3.970903   0.000000
    19  H    3.806388   3.426449   3.106120   0.000000
    20  C    3.554163   2.629764   2.222044   2.242900   0.000000
    21  H    4.249892   3.473863   2.455118   3.106120   1.087523
                   21
    21  H    0.000000
 Stoichiometry    C9H12
 Framework group  C1[X(C9H12)]
 Deg. of freedom    57
 Full point group                 C1      NOp   1
 RotChk:  IX=0 Diff= 1.31D+00
 Largest Abelian subgroup         C1      NOp   1
 Largest concise Abelian subgroup C1      NOp   1
                         Standard orientation:                         
 ---------------------------------------------------------------------
 Center     Atomic      Atomic             Coordinates (Angstroms)
 Number     Number       Type             X           Y           Z
 ---------------------------------------------------------------------
      1          1           0       -0.596897   -2.326472   -1.056614
      2          6           0       -0.390022   -1.467346   -0.422729
      3          6           0       -0.474611    1.787060    0.762746
      4          6           0       -1.310333   -1.304555    0.762746
      5          1           0       -2.329088   -0.586610   -1.056614
      6          1           0       -0.904104   -0.900119    1.685488
      7          1           0       -2.072241   -2.063102    0.924013
      8          6           0       -1.469055   -0.383533   -0.422729
      9          6           0       -1.075748    1.071442   -0.422730
     10          1           0        2.313232    0.646308   -1.056614
     11          6           0        1.465770    0.395904   -0.422729
     12          1           0       -0.750580    2.826165    0.924013
     13          6           0        1.784945   -0.482504    0.762746
     14          1           0        1.672562   -1.723743   -1.056614
     15          1           0        1.231578   -0.332919    1.685487
     16          1           0        2.822820   -0.763061    0.924013
     17          6           0        1.066678   -1.080472   -0.422729
     18          1           0       -1.716335    1.680163   -1.056614
     19          1           0       -0.327473    1.233036    1.685487
     20          6           0        0.402378    1.464005   -0.422729
     21          1           0        0.656526    2.310352   -1.056614
 ---------------------------------------------------------------------
 Rotational constants (GHZ):           2.2062252           2.2062242           1.4247629
 Leave Link  202 at Thu Jan 12 23:36:56 2023, MaxMem=   268435456 cpu:               0.0 elap:               0.0
 (Enter /public/home/zyli/senxu/soft/g16/l301.exe)
 Standard basis: 6-31G(d) (6D, 7F)
 Ernie: Thresh=  0.10000D-02 Tol=  0.10000D-05 Strict=F.
 There are   159 symmetry adapted cartesian basis functions of A   symmetry.
 There are   159 symmetry adapted basis functions of A   symmetry.
   159 basis functions,   300 primitive gaussians,   159 cartesian basis functions
    33 alpha electrons       33 beta electrons
       nuclear repulsion energy       453.6701997391 Hartrees.
 IExCor=    0 DFT=F Ex=HF Corr=None ExCW=0 ScaHFX=  1.000000
 ScaDFX=  1.000000  1.000000  1.000000  1.000000 ScalE2=  1.000000  1.000000
 IRadAn=      5 IRanWt=     -1 IRanGd=            0 ICorTp=0 IEmpDi=  4
 NAtoms=   21 NActive=   21 NUniq=   21 SFac= 1.00D+00 NAtFMM=   60 NAOKFM=F Big=F
 Integral buffers will be    131072 words long.
 Raffenetti 1 integral format.
 Two-electron integral symmetry is turned on.
 Leave Link  301 at Thu Jan 12 23:36:56 2023, MaxMem=   268435456 cpu:               0.2 elap:               0.0
 (Enter /public/home/zyli/senxu/soft/g16/l302.exe)
 NPDir=0 NMtPBC=     1 NCelOv=     1 NCel=       1 NClECP=     1 NCelD=      1
         NCelK=      1 NCelE2=     1 NClLst=     1 CellRange=     0.0.
 One-electron integrals computed using PRISM.
 One-electron integral symmetry used in STVInt
 NBasis=   159 RedAO= T EigKep=  1.40D-03  NBF=   159
 NBsUse=   159 1.00D-06 EigRej= -1.00D+00 NBFU=   159
 Leave Link  302 at Thu Jan 12 23:36:56 2023, MaxMem=   268435456 cpu:               0.5 elap:               0.1
 (Enter /public/home/zyli/senxu/soft/g16/l303.exe)
 DipDrv:  MaxL=1.
 Leave Link  303 at Thu Jan 12 23:36:56 2023, MaxMem=   268435456 cpu:               0.2 elap:               0.0
 (Enter /public/home/zyli/senxu/soft/g16/l401.exe)
 Initial guess from the checkpoint file:  "is_6-31gd.chk"
 Initial guess orbitals will be localized using method  0.
 B after Tr=     0.000000    0.000000   -0.000000
         Rot=    0.886940   -0.434355    0.141069   -0.069085 Ang= -55.02 deg.
 Guess basis will be translated and rotated to current coordinates.
 LocMO: Using Boys method
 Initial Trace= 0.36215468D-01 Initial TraceA= 0.95601615D+01
 RMSG= 0.23618286D-07
 LocMO: Using Boys method
 Initial Trace=-0.70160440D+00 Initial TraceA= 0.34252624D+02
 RMSG= 0.28442502D-07
 JPrj=2 DoOrth=T DoCkMO=T.
 Leave Link  401 at Thu Jan 12 23:37:00 2023, MaxMem=   268435456 cpu:              13.3 elap:               3.3
 (Enter /public/home/zyli/senxu/soft/g16/l601.exe)
 Copying SCF densities to generalized density rwf, IOpCl= 0 IROHF=0.

 **********************************************************************

            Population analysis using the SCF Density.

 **********************************************************************

 Orbital symmetries:
       Occupied  (A) (A) (A) (A) (A) (A) (A) (A) (A) (A) (A) (A)
                 (A) (A) (A) (A) (A) (A) (A) (A) (A) (A) (A) (A)
                 (A) (A) (A) (A) (A) (A) (A) (A) (A)
       Virtual   (A) (A) (A) (A) (A) (A) (A) (A) (A) (A) (A) (A)
                 (A) (A) (A) (A) (A) (A) (A) (A) (A) (A) (A) (A)
                 (A) (A) (A) (A) (A) (A) (A) (A) (A) (A) (A) (A)
                 (A) (A) (A) (A) (A) (A) (A) (A) (A) (A) (A) (A)
                 (A) (A) (A) (A) (A) (A) (A) (A) (A) (A) (A) (A)
                 (A) (A) (A) (A) (A) (A) (A) (A) (A) (A) (A) (A)
                 (A) (A) (A) (A) (A) (A) (A) (A) (A) (A) (A) (A)
                 (A) (A) (A) (A) (A) (A) (A) (A) (A) (A) (A) (A)
                 (A) (A) (A) (A) (A) (A) (A) (A) (A) (A) (A) (A)
                 (A) (A) (A) (A) (A) (A) (A) (A) (A) (A) (A) (A)
                 (A) (A) (A) (A) (A) (A)
 The electronic state is 1-A.
 Alpha  occ. eigenvalues --  -11.22767 -11.22740 -11.22739 -11.22675 -11.22675
 Alpha  occ. eigenvalues --  -11.22642 -11.21891 -11.21891 -11.21890  -1.18032
 Alpha  occ. eigenvalues --   -1.10524  -1.10524  -0.87542  -0.87542  -0.86041
 Alpha  occ. eigenvalues --   -0.76438  -0.76438  -0.70404  -0.67100  -0.65196
 Alpha  occ. eigenvalues --   -0.62952  -0.62952  -0.53153  -0.53152  -0.52484
 Alpha  occ. eigenvalues --   -0.48907  -0.48907  -0.48358  -0.44688  -0.44688
 Alpha  occ. eigenvalues --   -0.37243  -0.35171  -0.35171
 Alpha virt. eigenvalues --    0.20479   0.24044   0.26191   0.26191   0.28637
 Alpha virt. eigenvalues --    0.28637   0.32299   0.32299   0.34392   0.34392
 Alpha virt. eigenvalues --    0.34459   0.36411   0.36411   0.36521   0.37892
 Alpha virt. eigenvalues --    0.41351   0.41351   0.44857   0.46138   0.46138
 Alpha virt. eigenvalues --    0.55783   0.57513   0.57513   0.61909   0.66292
 Alpha virt. eigenvalues --    0.69796   0.74948   0.74948   0.78879   0.81820
 Alpha virt. eigenvalues --    0.81820   0.84500   0.85650   0.85651   0.88372
 Alpha virt. eigenvalues --    0.88372   0.88525   0.89913   0.89963   0.89963
 Alpha virt. eigenvalues --    0.92547   0.95393   0.95393   1.00671   1.00671
 Alpha virt. eigenvalues --    1.03011   1.09853   1.09853   1.14798   1.16012
 Alpha virt. eigenvalues --    1.16182   1.16417   1.16417   1.17544   1.17544
 Alpha virt. eigenvalues --    1.19233   1.19233   1.19543   1.24129   1.27867
 Alpha virt. eigenvalues --    1.27867   1.42980   1.43953   1.43953   1.53599
 Alpha virt. eigenvalues --    1.53599   1.61566   1.65471   1.65471   1.73600
 Alpha virt. eigenvalues --    1.79088   1.79088   1.90724   1.96221   1.98943
 Alpha virt. eigenvalues --    1.98943   1.99401   2.00460   2.00460   2.09409
 Alpha virt. eigenvalues --    2.13691   2.13691   2.23297   2.23297   2.25814
 Alpha virt. eigenvalues --    2.25814   2.28821   2.33681   2.37522   2.37522
 Alpha virt. eigenvalues --    2.41881   2.49268   2.49268   2.55673   2.61720
 Alpha virt. eigenvalues --    2.61720   2.64636   2.64636   2.70937   2.70937
 Alpha virt. eigenvalues --    2.72985   2.75441   2.78996   2.82738   2.82738
 Alpha virt. eigenvalues --    2.83624   2.83624   2.98303   3.05197   3.05197
 Alpha virt. eigenvalues --    3.08982   3.08982   3.19476   3.19476   3.20070
 Alpha virt. eigenvalues --    3.33068   3.38049   4.44968   4.73032   4.73032
 Alpha virt. eigenvalues --    4.76280   4.92818   4.92818   5.08283   5.08283
 Alpha virt. eigenvalues --    5.16889
     Molecular Orbital Coefficients:
                           1         2         3         4         5
                           O         O         O         O         O
     Eigenvalues --   -11.22767 -11.22740 -11.22739 -11.22675 -11.22675
   1 1   H  1S         -0.00007  -0.00813  -0.00009  -0.00023   0.00071
   2        2S         -0.00003  -0.00151   0.00023  -0.00030   0.00155
   3 2   C  1S         -0.00026   1.00497  -0.00020  -0.00145   0.00168
   4        2S          0.00018   0.00848   0.00001   0.00337  -0.00478
   5        2PX         0.00011   0.00027   0.00041  -0.00474  -0.00773
   6        2PY         0.00046   0.00127   0.00015   0.00585  -0.00238
   7        2PZ        -0.00021   0.00096  -0.00008  -0.00165  -0.00039
   8        3S          0.00213  -0.03822   0.00108  -0.00403   0.00451
   9        3PX        -0.00013   0.00203   0.00027   0.00049  -0.00111
  10        3PY         0.00109  -0.00330   0.00099   0.00053   0.00157
  11        3PZ         0.00029  -0.00237   0.00117   0.00028   0.00109
  12        4XX        -0.00005  -0.00177  -0.00003   0.00072  -0.00144
  13        4YY        -0.00015  -0.00178  -0.00014   0.00044  -0.00002
  14        4ZZ        -0.00011  -0.00147  -0.00014  -0.00017   0.00005
  15        4XY        -0.00001  -0.00008  -0.00018  -0.00110  -0.00045
  16        4XZ        -0.00001   0.00008   0.00009  -0.00007   0.00001
  17        4YZ        -0.00002  -0.00059   0.00001   0.00004  -0.00000
  18 3   C  1S          0.00151   0.00009  -0.00024   0.00024   0.00009
  19        2S         -0.00387  -0.00002   0.00022  -0.00022  -0.00002
  20        2PX        -0.00595   0.00024   0.00045   0.00034  -0.00029
  21        2PY         0.00091   0.00018  -0.00009   0.00030   0.00004
  22        2PZ         0.00527   0.00017  -0.00021   0.00021   0.00017
  23        3S          0.00609  -0.00216  -0.00002   0.00002  -0.00216
  24        3PX        -0.00052   0.00011   0.00037   0.00015  -0.00058
  25        3PY        -0.00135   0.00099  -0.00035   0.00049   0.00080
  26        3PZ        -0.00098   0.00060   0.00013  -0.00013   0.00060
  27        4XX        -0.00028   0.00004  -0.00024   0.00014   0.00003
  28        4YY         0.00023   0.00001  -0.00017   0.00027   0.00001
  29        4ZZ        -0.00100   0.00000   0.00011  -0.00011   0.00000
  30        4XY         0.00015   0.00000   0.00011   0.00009   0.00001
  31        4XZ         0.00094  -0.00002   0.00003  -0.00001   0.00002
  32        4YZ        -0.00038  -0.00001  -0.00007   0.00008  -0.00000
  33 4   C  1S          0.00009   0.00151   0.00009  -0.00151  -0.00024
  34        2S         -0.00002  -0.00387  -0.00002   0.00387   0.00022
  35        2PX         0.00012  -0.00560  -0.00027  -0.00219   0.00043
  36        2PY        -0.00027   0.00222   0.00012   0.00561  -0.00014
  37        2PZ         0.00017   0.00527   0.00017  -0.00527  -0.00021
  38        3S         -0.00216   0.00609  -0.00216  -0.00609  -0.00002
  39        3PX        -0.00040   0.00023  -0.00091  -0.00143   0.00050
  40        3PY        -0.00091   0.00142  -0.00040  -0.00023   0.00011
  41        3PZ         0.00060  -0.00098   0.00060   0.00098   0.00013
  42        4XX         0.00003  -0.00026   0.00002  -0.00021  -0.00031
  43        4YY         0.00002   0.00021   0.00003   0.00026  -0.00010
  44        4ZZ         0.00000  -0.00100   0.00000   0.00100   0.00011
  45        4XY        -0.00002   0.00019  -0.00002  -0.00019  -0.00002
  46        4XZ        -0.00001   0.00100   0.00002   0.00014   0.00006
  47        4YZ         0.00002  -0.00015  -0.00001  -0.00100   0.00005
  48 5   H  1S         -0.00009   0.00023  -0.00007   0.00813  -0.00017
  49        2S          0.00023   0.00030  -0.00003   0.00151  -0.00046
  50 6   H  1S          0.00005   0.00017   0.00005  -0.00017   0.00029
  51        2S          0.00019   0.00031   0.00019  -0.00031   0.00028
  52 7   H  1S          0.00011   0.00031   0.00011  -0.00031  -0.00021
  53        2S          0.00001   0.00091   0.00001  -0.00091  -0.00028
  54 8   C  1S         -0.00020   0.00145  -0.00026  -1.00497  -0.00017
  55        2S          0.00001  -0.00337   0.00018  -0.00848   0.00032
  56        2PX         0.00015  -0.00582   0.00046  -0.00127   0.00045
  57        2PY         0.00041   0.00476   0.00010  -0.00026  -0.00021
  58        2PZ        -0.00008   0.00165  -0.00021  -0.00096  -0.00024
  59        3S          0.00108   0.00403   0.00213   0.03822  -0.00147
  60        3PX         0.00099  -0.00053   0.00109   0.00330  -0.00019
  61        3PY         0.00027  -0.00049  -0.00013  -0.00204   0.00011
  62        3PZ         0.00117  -0.00028   0.00029   0.00237  -0.00064
  63        4XX        -0.00014  -0.00043  -0.00015   0.00178  -0.00027
  64        4YY        -0.00003  -0.00073  -0.00005   0.00177   0.00008
  65        4ZZ        -0.00014   0.00017  -0.00011   0.00147  -0.00009
  66        4XY        -0.00018   0.00110  -0.00001   0.00008   0.00003
  67        4XZ         0.00001  -0.00004  -0.00002   0.00059  -0.00001
  68        4YZ         0.00009   0.00007  -0.00001  -0.00008  -0.00003
  69 9   C  1S          0.00145  -0.00020  -0.00017  -0.00168  -0.00026
  70        2S         -0.00337   0.00001   0.00032   0.00478   0.00018
  71        2PX        -0.00743  -0.00007   0.00049  -0.00180   0.00035
  72        2PY        -0.00118  -0.00043  -0.00005  -0.00789  -0.00032
  73        2PZ         0.00165  -0.00008  -0.00024   0.00039  -0.00021
  74        3S          0.00403   0.00108  -0.00147  -0.00451   0.00213
  75        3PX        -0.00021   0.00072  -0.00022  -0.00192   0.00100
  76        3PY         0.00069  -0.00073   0.00000  -0.00018  -0.00043
  77        3PZ        -0.00028   0.00117  -0.00064  -0.00109   0.00029
  78        4XX        -0.00134   0.00002  -0.00020   0.00004  -0.00012
  79        4YY         0.00018  -0.00019   0.00001   0.00142  -0.00008
  80        4ZZ         0.00017  -0.00014  -0.00009  -0.00005  -0.00011
  81        4XY        -0.00069   0.00014   0.00016   0.00049   0.00005
  82        4XZ        -0.00007  -0.00003   0.00001   0.00001  -0.00001
  83        4YZ        -0.00004  -0.00009   0.00003   0.00001   0.00001
  84 10  H  1S          0.00071  -0.00017  -0.00813   0.00007   0.00023
  85        2S          0.00155  -0.00046  -0.00151   0.00003   0.00030
  86 11  C  1S          0.00168  -0.00017   1.00497   0.00026   0.00145
  87        2S         -0.00478   0.00032   0.00848  -0.00018  -0.00337
  88        2PX         0.00593  -0.00029  -0.00123   0.00045   0.00269
  89        2PY        -0.00550  -0.00040  -0.00041   0.00014   0.00702
  90        2PZ        -0.00039  -0.00024   0.00096   0.00021   0.00165
  91        3S          0.00451  -0.00147  -0.03822  -0.00213   0.00403
  92        3PX        -0.00081   0.00011   0.00185   0.00088   0.00070
  93        3PY        -0.00175   0.00019   0.00341   0.00065  -0.00016
  94        3PZ         0.00109  -0.00064  -0.00237  -0.00029  -0.00028
  95        4XX        -0.00071  -0.00016  -0.00184   0.00013   0.00031
  96        4YY        -0.00075  -0.00003  -0.00171   0.00007  -0.00148
  97        4ZZ         0.00005  -0.00009  -0.00147   0.00011   0.00017
  98        4XY         0.00093  -0.00018   0.00004   0.00004  -0.00041
  99        4XZ        -0.00000   0.00002   0.00047  -0.00002   0.00000
 100        4YZ         0.00001  -0.00002   0.00036  -0.00000   0.00008
 101 12  H  1S          0.00031   0.00011  -0.00021   0.00021   0.00011
 102        2S          0.00091   0.00001  -0.00028   0.00028   0.00001
 103 13  C  1S         -0.00024  -0.00024   0.00151  -0.00009   0.00151
 104        2S          0.00022   0.00022  -0.00387   0.00002  -0.00387
 105        2PX        -0.00009  -0.00030   0.00088  -0.00018   0.00376
 106        2PY         0.00045  -0.00034  -0.00596  -0.00024   0.00470
 107        2PZ        -0.00021  -0.00021   0.00527  -0.00017   0.00527
 108        3S         -0.00002  -0.00002   0.00609   0.00216   0.00609
 109        3PX        -0.00035  -0.00049  -0.00135  -0.00099  -0.00091
 110        3PY         0.00037  -0.00015  -0.00051  -0.00010   0.00112
 111        3PZ         0.00013   0.00013  -0.00098  -0.00060  -0.00098
 112        4XX        -0.00017  -0.00027   0.00023  -0.00001  -0.00001
 113        4YY        -0.00025  -0.00014  -0.00028  -0.00004  -0.00005
 114        4ZZ         0.00011   0.00011  -0.00100  -0.00000  -0.00100
 115        4XY         0.00011  -0.00009   0.00014  -0.00000  -0.00033
 116        4XZ        -0.00007  -0.00008  -0.00037   0.00001  -0.00079
 117        4YZ         0.00003   0.00001   0.00094   0.00002  -0.00062
 118 14  H  1S         -0.00017   0.00071   0.00023   0.00009  -0.00813
 119        2S         -0.00046   0.00155   0.00030  -0.00023  -0.00151
 120 15  H  1S          0.00029   0.00029   0.00017  -0.00005   0.00017
 121        2S          0.00028   0.00028   0.00031  -0.00019   0.00031
 122 16  H  1S         -0.00021  -0.00021   0.00031  -0.00011   0.00031
 123        2S         -0.00028  -0.00028   0.00091  -0.00001   0.00091
 124 17  C  1S         -0.00017   0.00168   0.00145   0.00020   1.00497
 125        2S          0.00032  -0.00478  -0.00337  -0.00001   0.00848
 126        2PX        -0.00005   0.00789  -0.00121   0.00043  -0.00086
 127        2PY         0.00049   0.00177  -0.00743   0.00007   0.00097
 128        2PZ        -0.00024  -0.00039   0.00165   0.00008   0.00096
 129        3S         -0.00147   0.00451   0.00403  -0.00108  -0.03822
 130        3PX         0.00000   0.00019   0.00069   0.00072  -0.00012
 131        3PY        -0.00022   0.00192  -0.00022  -0.00072  -0.00387
 132        3PZ        -0.00064   0.00109  -0.00028  -0.00117  -0.00237
 133        4XX         0.00001  -0.00142   0.00017   0.00019  -0.00184
 134        4YY        -0.00020  -0.00004  -0.00133  -0.00002  -0.00172
 135        4ZZ        -0.00009   0.00005   0.00017   0.00014  -0.00147
 136        4XY         0.00016  -0.00048  -0.00070  -0.00014   0.00005
 137        4XZ         0.00003  -0.00001  -0.00004   0.00009   0.00023
 138        4YZ         0.00001  -0.00001  -0.00007   0.00003  -0.00055
 139 18  H  1S          0.00023  -0.00009  -0.00017  -0.00071  -0.00007
 140        2S          0.00030   0.00023  -0.00046  -0.00155  -0.00003
 141 19  H  1S          0.00017   0.00005   0.00029  -0.00029   0.00005
 142        2S          0.00031   0.00019   0.00028  -0.00028   0.00019
 143 20  C  1S          1.00497  -0.00026   0.00168   0.00017  -0.00020
 144        2S          0.00848   0.00018  -0.00478  -0.00032   0.00001
 145        2PX        -0.00041  -0.00014  -0.00548   0.00040   0.00028
 146        2PY        -0.00123  -0.00045   0.00595   0.00029  -0.00034
 147        2PZ         0.00096  -0.00021  -0.00039   0.00024  -0.00008
 148        3S         -0.03822   0.00213   0.00451   0.00147   0.00108
 149        3PX         0.00341  -0.00066  -0.00175  -0.00019  -0.00026
 150        3PY         0.00183  -0.00088  -0.00080  -0.00011  -0.00099
 151        3PZ        -0.00237   0.00029   0.00109   0.00064   0.00117
 152        4XX        -0.00171  -0.00007  -0.00074   0.00003   0.00008
 153        4YY        -0.00184  -0.00013  -0.00071   0.00016  -0.00024
 154        4ZZ        -0.00147  -0.00011   0.00005   0.00009  -0.00014
 155        4XY         0.00004  -0.00005   0.00093   0.00019   0.00003
 156        4XZ         0.00036   0.00000   0.00001   0.00002   0.00007
 157        4YZ         0.00047   0.00002  -0.00000  -0.00002  -0.00006
 158 21  H  1S         -0.00813  -0.00007   0.00071   0.00017  -0.00009
 159        2S         -0.00151  -0.00003   0.00155   0.00046   0.00023
                           6         7         8         9        10
                           O         O         O         O         O
     Eigenvalues --   -11.22642 -11.21891 -11.21891 -11.21890  -1.18032
   1 1   H  1S         -0.00017   0.00010  -0.00016   0.00027   0.01187
   2        2S         -0.00046   0.00004   0.00015   0.00032   0.02475
   3 2   C  1S         -0.00017   0.00009  -0.00026   0.00153   0.00293
   4        2S          0.00032  -0.00004   0.00009  -0.00358   0.00583
   5        2PX        -0.00021   0.00022   0.00051   0.00368  -0.00713
   6        2PY         0.00045  -0.00029   0.00011   0.00051   0.00137
   7        2PZ        -0.00024   0.00012   0.00013  -0.00706   0.00499
   8        3S         -0.00147  -0.00164   0.00180   0.00324  -0.11318
   9        3PX         0.00011   0.00045   0.00024  -0.00082   0.06779
  10        3PY        -0.00019  -0.00081   0.00142  -0.00016  -0.03984
  11        3PZ        -0.00064  -0.00021   0.00080  -0.00093  -0.03358
  12        4XX         0.00008   0.00002  -0.00009  -0.00047   0.00827
  13        4YY        -0.00027  -0.00000  -0.00011   0.00023  -0.00265
  14        4ZZ        -0.00009   0.00004  -0.00011  -0.00082  -0.00701
  15        4XY         0.00003   0.00001   0.00004   0.00022  -0.00684
  16        4XZ        -0.00003   0.00000  -0.00023   0.00109  -0.00883
  17        4YZ        -0.00001  -0.00001  -0.00004  -0.00020   0.01235
  18 3   C  1S          0.00151   1.00497  -0.00020  -0.00020   0.00511
  19        2S         -0.00387   0.00797   0.00017   0.00017  -0.01113
  20        2PX         0.00472   0.00014   0.00042  -0.00031   0.01804
  21        2PY         0.00374  -0.00052  -0.00011  -0.00030   0.01242
  22        2PZ         0.00527  -0.00119   0.00003   0.00003   0.00694
  23        3S          0.00609  -0.03484   0.00131   0.00131  -0.02829
  24        3PX         0.00112  -0.00018   0.00040  -0.00013   0.01640
  25        3PY        -0.00091   0.00067  -0.00044  -0.00058   0.00633
  26        3PZ        -0.00098   0.00172  -0.00006  -0.00006   0.00777
  27        4XX        -0.00005  -0.00144  -0.00011  -0.00008  -0.00052
  28        4YY        -0.00000  -0.00237  -0.00013  -0.00016   0.00013
  29        4ZZ        -0.00100  -0.00227  -0.00004  -0.00004   0.00050
  30        4XY        -0.00033   0.00031   0.00005  -0.00002  -0.00023
  31        4XZ        -0.00063  -0.00003  -0.00002   0.00003  -0.00061
  32        4YZ        -0.00079   0.00013  -0.00002  -0.00000  -0.00022
  33 4   C  1S         -0.00024  -0.00020  -0.00020   1.00497  -0.06037
  34        2S          0.00022   0.00017   0.00017   0.00797   0.16467
  35        2PX        -0.00014  -0.00011   0.00041   0.00038  -0.15287
  36        2PY         0.00043   0.00041  -0.00011   0.00038   0.28125
  37        2PZ        -0.00021   0.00003   0.00003  -0.00119  -0.19124
  38        3S         -0.00002   0.00131   0.00131  -0.03484   0.16578
  39        3PX         0.00012   0.00018   0.00056  -0.00049  -0.10085
  40        3PY         0.00050   0.00056   0.00018  -0.00049   0.15703
  41        3PZ         0.00013  -0.00006  -0.00006   0.00172  -0.09073
  42        4XX        -0.00010  -0.00009  -0.00015  -0.00191  -0.00923
  43        4YY        -0.00031  -0.00015  -0.00009  -0.00191   0.00856
  44        4ZZ         0.00011  -0.00004  -0.00004  -0.00227   0.00820
  45        4XY        -0.00002  -0.00003  -0.00003  -0.00062  -0.00583
  46        4XZ         0.00005   0.00003  -0.00001  -0.00009   0.00795
  47        4YZ         0.00006  -0.00001   0.00003  -0.00009  -0.02189
  48 5   H  1S          0.00071  -0.00016   0.00010   0.00027  -0.01603
  49        2S          0.00155   0.00015   0.00004   0.00032  -0.04283
  50 6   H  1S          0.00029   0.00006   0.00006  -0.00794  -0.01505
  51        2S          0.00028  -0.00034  -0.00034  -0.00041  -0.04606
  52 7   H  1S         -0.00021  -0.00009  -0.00009  -0.00789  -0.01578
  53        2S         -0.00028  -0.00009  -0.00009  -0.00050  -0.04536
  54 8   C  1S          0.00168  -0.00026   0.00009   0.00153  -0.06042
  55        2S         -0.00478   0.00009  -0.00004  -0.00358   0.16597
  56        2PX        -0.00242   0.00011  -0.00028   0.00052  -0.08067
  57        2PY        -0.00772   0.00051   0.00022   0.00368  -0.12206
  58        2PZ        -0.00039   0.00013   0.00012  -0.00706   0.34467
  59        3S          0.00451   0.00180  -0.00164   0.00324   0.15860
  60        3PX         0.00157   0.00142  -0.00080  -0.00016  -0.05480
  61        3PY        -0.00112   0.00024   0.00045  -0.00082  -0.04832
  62        3PZ         0.00109   0.00080  -0.00021  -0.00093   0.19409
  63        4XX        -0.00002  -0.00011  -0.00000   0.00023  -0.01072
  64        4YY        -0.00143  -0.00009   0.00002  -0.00047  -0.00076
  65        4ZZ         0.00005  -0.00011   0.00004  -0.00082   0.01826
  66        4XY        -0.00045   0.00004   0.00001   0.00021   0.00113
  67        4XZ        -0.00000  -0.00005  -0.00001  -0.00020   0.00059
  68        4YZ         0.00001  -0.00023   0.00000   0.00109  -0.02058
[...]
     7  H   -0.004029  -0.022797   0.000228   0.392920  -0.004029  -0.019293
     8  C   -0.024731   0.277232  -0.033520   0.237111   0.398634  -0.026847
     9  C    0.002291  -0.037891   0.237111  -0.033520  -0.029086  -0.002337
    10  H   -0.000019   0.002291   0.001630  -0.000122  -0.000006  -0.000003
    11  C    0.001722  -0.037891  -0.033520   0.006527   0.000190  -0.000113
    12  H    0.000001  -0.000136   0.392920   0.000228  -0.000033  -0.000036
    13  C    0.001630  -0.033520  -0.011461  -0.011461  -0.000122   0.000269
    14  H   -0.004209  -0.029086  -0.000122   0.001630  -0.000019   0.000055
    15  H    0.000055  -0.002337   0.000269   0.000269  -0.000003   0.000834
    16  H   -0.000033   0.001616   0.000228   0.000228   0.000001  -0.000036
    17  C   -0.029086   0.365070   0.006527  -0.033520   0.002291  -0.002337
    18  H   -0.000019   0.001722  -0.023879   0.001630  -0.004209   0.000055
    19  H   -0.000003  -0.000113   0.394582   0.000269   0.000055   0.000834
    20  C    0.000190  -0.015961   0.237111   0.006527   0.001722  -0.000113
    21  H   -0.000006   0.000190  -0.023879  -0.000122  -0.000019  -0.000003
               7          8          9         10         11         12
     1  H   -0.004029  -0.024731   0.002291  -0.000019   0.001722   0.000001
     2  C   -0.022797   0.277232  -0.037891   0.002291  -0.037891  -0.000136
     3  C    0.000228  -0.033520   0.237111   0.001630  -0.033520   0.392920
     4  C    0.392920   0.237111  -0.033520  -0.000122   0.006527   0.000228
     5  H   -0.004029   0.398634  -0.029086  -0.000006   0.000190  -0.000033
     6  H   -0.019293  -0.026847  -0.002337  -0.000003  -0.000113  -0.000036
     7  H    0.497515  -0.022797   0.001616   0.000001  -0.000136  -0.000002
     8  C   -0.022797   5.121310   0.365070   0.000190  -0.015961   0.001616
     9  C    0.001616   0.365070   5.121309   0.001722  -0.037891  -0.022797
    10  H    0.000001   0.000190   0.001722   0.499937   0.398634  -0.000033
    11  C   -0.000136  -0.015961  -0.037891   0.398634   5.121309   0.001616
    12  H   -0.000002   0.001616  -0.022797  -0.000033   0.001616   0.497515
    13  C    0.000228   0.006527   0.006527  -0.023879   0.237111   0.000228
    14  H   -0.000033   0.001722   0.000190  -0.004809  -0.024731   0.000001
    15  H   -0.000036  -0.000113  -0.000113   0.001472  -0.026847  -0.000036
    16  H   -0.000002  -0.000136  -0.000136  -0.004029  -0.022797  -0.000002
    17  C    0.001616  -0.037891  -0.015961  -0.024731   0.277232  -0.000136
    18  H   -0.000033  -0.029086   0.398634  -0.000019   0.002291  -0.004029
    19  H   -0.000036  -0.002337  -0.026847   0.000055  -0.002337  -0.019293
    20  C   -0.000136  -0.037891   0.277232  -0.029086   0.365070  -0.022797
    21  H    0.000001   0.002291  -0.024731  -0.004209  -0.029086  -0.004029
              13         14         15         16         17         18
     1  H    0.001630  -0.004209   0.000055  -0.000033  -0.029086  -0.000019
     2  C   -0.033520  -0.029086  -0.002337   0.001616   0.365070   0.001722
     3  C   -0.011461  -0.000122   0.000269   0.000228   0.006527  -0.023879
     4  C   -0.011461   0.001630   0.000269   0.000228  -0.033520   0.001630
     5  H   -0.000122  -0.000019  -0.000003   0.000001   0.002291  -0.004209
     6  H    0.000269   0.000055   0.000834  -0.000036  -0.002337   0.000055
     7  H    0.000228  -0.000033  -0.000036  -0.000002   0.001616  -0.000033
     8  C    0.006527   0.001722  -0.000113  -0.000136  -0.037891  -0.029086
     9  C    0.006527   0.000190  -0.000113  -0.000136  -0.015961   0.398634
    10  H   -0.023879  -0.004809   0.001472  -0.004029  -0.024731  -0.000019
    11  C    0.237111  -0.024731  -0.026847  -0.022797   0.277232   0.002291
    12  H    0.000228   0.000001  -0.000036  -0.000002  -0.000136  -0.004029
    13  C    5.220508  -0.023879   0.394582   0.392920   0.237111  -0.000122
    14  H   -0.023879   0.499937   0.001472  -0.004029   0.398634  -0.000006
    15  H    0.394582   0.001472   0.505021  -0.019293  -0.026847  -0.000003
    16  H    0.392920  -0.004029  -0.019293   0.497515  -0.022797   0.000001
    17  C    0.237111   0.398634  -0.026847  -0.022797   5.121309   0.000190
    18  H   -0.000122  -0.000006  -0.000003   0.000001   0.000190   0.499936
    19  H    0.000269  -0.000003   0.000834  -0.000036  -0.000113   0.001472
    20  C   -0.033520   0.002291  -0.002337   0.001616  -0.037891  -0.024731
    21  H    0.001630  -0.000019   0.000055  -0.000033   0.001722  -0.004809
              19         20         21
     1  H   -0.000003   0.000190  -0.000006
     2  C   -0.000113  -0.015961   0.000190
     3  C    0.394582   0.237111  -0.023879
     4  C    0.000269   0.006527  -0.000122
     5  H    0.000055   0.001722  -0.000019
     6  H    0.000834  -0.000113  -0.000003
     7  H   -0.000036  -0.000136   0.000001
     8  C   -0.002337  -0.037891   0.002291
     9  C   -0.026847   0.277232  -0.024731
    10  H    0.000055  -0.029086  -0.004209
    11  C   -0.002337   0.365070  -0.029086
    12  H   -0.019293  -0.022797  -0.004029
    13  C    0.000269  -0.033520   0.001630
    14  H   -0.000003   0.002291  -0.000019
    15  H    0.000834  -0.002337   0.000055
    16  H   -0.000036   0.001616  -0.000033
    17  C   -0.000113  -0.037891   0.001722
    18  H    0.001472  -0.024731  -0.004809
    19  H    0.505021  -0.026847   0.001472
    20  C   -0.026847   5.121310   0.398634
    21  H    0.001472   0.398634   0.499937
 Mulliken charges:
               1
     1  H    0.185014
     2  C   -0.180395
     3  C   -0.361575
     4  C   -0.361575
     5  H    0.185014
     6  H    0.173103
     7  H    0.179233
     8  C   -0.180395
     9  C   -0.180394
    10  H    0.185014
    11  C   -0.180394
    12  H    0.179233
    13  C   -0.361575
    14  H    0.185014
    15  H    0.173103
    16  H    0.179233
    17  C   -0.180395
    18  H    0.185014
    19  H    0.173103
    20  C   -0.180394
    21  H    0.185014
 Sum of Mulliken charges =  -0.00000
 Mulliken charges with hydrogens summed into heavy atoms:
               1
     2  C    0.004619
     3  C   -0.009239
     4  C   -0.009239
     8  C    0.004619
     9  C    0.004620
    11  C    0.004620
    13  C   -0.009239
    17  C    0.004619
    20  C    0.004619
 Electronic spatial extent (au):  <R**2>=            994.1725
 Charge=              0.0000 electrons
 Dipole moment (field-independent basis, Debye):
    X=             -0.0000    Y=              0.0000    Z=             -0.3682  Tot=              0.3682
 Quadrupole moment (field-independent basis, Debye-Ang):
   XX=            -54.3178   YY=            -54.3178   ZZ=            -54.8397
   XY=              0.0000   XZ=              0.0000   YZ=              0.0000
 Traceless Quadrupole moment (field-independent basis, Debye-Ang):
   XX=              0.1740   YY=              0.1740   ZZ=             -0.3480
   XY=              0.0000   XZ=              0.0000   YZ=              0.0000
 Octapole moment (field-independent basis, Debye-Ang**2):
  XXX=             -4.5998  YYY=             -4.6611  ZZZ=              3.5518  XYY=              4.5998
  XXY=              4.6611  XXZ=             -6.1969  XZZ=             -0.0000  YZZ=              0.0000
  YYZ=             -6.1969  XYZ=              0.0000
 Hexadecapole moment (field-independent basis, Debye-Ang**3):
 XXXX=           -555.7523 YYYY=           -555.7521 ZZZZ=           -220.1808 XXXY=             -0.0000
 XXXZ=             -4.8497 YYYX=             -0.0000 YYYZ=             -4.9145 ZZZX=              0.0000
 ZZZY=              0.0000 XXYY=           -185.2507 XXZZ=           -128.9521 YYZZ=           -128.9521
 XXYZ=              4.9145 YYXZ=              4.8497 ZZXY=             -0.0000
 N-N= 4.536701997391D+02 E-N=-1.716152878970D+03  KE= 3.471359958716D+02
 Orbital energies and kinetic energies (alpha):
                                 1                 2
   1         O               -11.227671         16.442413
   2         O               -11.227395         16.442413
   3         O               -11.227395         16.442413
   4         O               -11.226748         16.442413
   5         O               -11.226748         16.442413
   6         O               -11.226425         16.442413
   7         O               -11.218913         16.435918
   8         O               -11.218913         16.435918
   9         O               -11.218897         16.435918
  10         O                -1.180321          1.180748
  11         O                -1.105235          1.180748
  12         O                -1.105235          0.948530
  13         O                -0.875417          1.180748
  14         O                -0.875417          0.948531
  15         O                -0.860412          0.937473
  16         O                -0.764381          0.937473
  17         O                -0.764381          0.937473
  18         O                -0.704044          0.935930
  19         O                -0.670996          0.948530
  20         O                -0.651963          0.948530
  21         O                -0.629516          0.935930
  22         O                -0.629515          0.935930
  23         O                -0.531525          1.180747
  24         O                -0.531525          0.948531
  25         O                -0.524839          1.222608
  26         O                -0.489073          1.222608
  27         O                -0.489073          1.222607
  28         O                -0.483579          1.180689
  29         O                -0.446880          1.180748
  30         O                -0.446880          0.948530
  31         O                -0.372434          1.180748
  32         O                -0.351713          1.180690
  33         O                -0.351712          1.180689
  34         V                 0.204794          0.992326
  35         V                 0.240436          1.249849
  36         V                 0.261913          0.992326
  37         V                 0.261913          0.992326
  38         V                 0.286374          3.587055
  39         V                 0.286374          3.587055
  40         V                 0.322990          0.992327
  41         V                 0.322990          0.992327
  42         V                 0.343917          1.177709
  43         V                 0.343918          1.177710
  44         V                 0.344588          1.177709
  45         V                 0.364108          1.249849
  46         V                 0.364108          1.249849
  47         V                 0.365206          0.992327
  48         V                 0.378921          2.088607
  49         V                 0.413506          3.590525
  50         V                 0.413506          3.590530
  51         V                 0.448567          3.587053
  52         V                 0.461382          3.587052
  53         V                 0.461382          3.587055
  54         V                 0.557827          3.590529
  55         V                 0.575131          3.753745
  56         V                 0.575131          3.753752
  57         V                 0.619092          1.787516
  58         V                 0.662921          3.753749
  59         V                 0.697964          1.953959
  60         V                 0.749484          2.743148
  61         V                 0.749484          2.374830
  62         V                 0.788791          2.743145
  63         V                 0.818199          1.787518
  64         V                 0.818199          2.071062
  65         V                 0.844998          3.587056
  66         V                 0.856505          1.953960
  67         V                 0.856505          1.953959
  68         V                 0.883716          2.743144
  69         V                 0.883716          2.071059
  70         V                 0.885252          1.787517
  71         V                 0.899130          2.494865
  72         V                 0.899631          2.494864
  73         V                 0.899631          2.494863
  74         V                 0.925474          2.743145
  75         V                 0.953932          2.071061
  76         V                 0.953932          2.071059
  77         V                 1.006713          2.374830
  78         V                 1.006713          2.284226
  79         V                 1.030113          2.494865
  80         V                 1.098534          1.953959
  81         V                 1.098534          1.953960
  82         V                 1.147984          1.953960
  83         V                 1.160117          3.172272
  84         V                 1.161815          3.315860
  85         V                 1.164169          3.315867
  86         V                 1.164169          3.172272
  87         V                 1.175438          3.315860
  88         V                 1.175438          3.197426
  89         V                 1.192331          3.315864
  90         V                 1.192332          3.315863
  91         V                 1.195434          3.315867
  92         V                 1.241293          3.197426
  93         V                 1.278671          3.172266
  94         V                 1.278672          3.197427
  95         V                 1.429803          2.088607
  96         V                 1.439527          2.071062
  97         V                 1.439527          2.071066
  98         V                 1.535992          2.088607
  99         V                 1.535993          2.494863
 100         V                 1.615659          2.494864
 101         V                 1.654705          2.374830
 102         V                 1.654706          2.284226
 103         V                 1.736004          4.313166
 104         V                 1.790884          2.743146
 105         V                 1.790885          2.743141
 106         V                 1.907242          2.284226
 107         V                 1.962214          3.136309
 108         V                 1.989430          3.136308
 109         V                 1.989431          6.658879
 110         V                 1.994012          4.314725
 111         V                 2.004602          6.489720
 112         V                 2.004603          6.489721
 113         V                 2.094088          4.385580
 114         V                 2.136910          4.646244
 115         V                 2.136911          4.314726
 116         V                 2.232972          4.385579
 117         V                 2.232972          4.385578
 118         V                 2.258144          4.255240
 119         V                 2.258144          4.255238
 120         V                 2.288206          4.255239
 121         V                 2.336812          4.236464
 122         V                 2.375221          6.658882
 123         V                 2.375221          3.149608
 124         V                 2.418808          3.149607
 125         V                 2.492683          3.136308
 126         V                 2.492683          6.489724
 127         V                 2.556731          4.314724
 128         V                 2.617197          4.646245
 129         V                 2.617197          4.236465
 130         V                 2.646360          6.658882
 131         V                 2.646361          4.255239
 132         V                 2.709365          4.646242
 133         V                 2.709366          4.646246
 134         V                 2.729852          3.136308
 135         V                 2.754413          4.457725
 136         V                 2.789962          4.314723
 137         V                 2.827377          4.313166
 138         V                 2.827378          4.314723
 139         V                 2.836244          4.457727
 140         V                 2.836244          4.457724
 141         V                 2.983028          4.236464
 142         V                 3.051972          4.236464
 143         V                 3.051972          3.136308
 144         V                 3.089819          4.313165
 145         V                 3.089819          4.646246
 146         V                 3.194759          4.314724
 147         V                 3.194760          4.313166
 148         V                 3.200703          4.646246
 149         V                 3.330683          4.236464
 150         V                 3.380492          4.313167
 151         V                 4.449679          4.236465
 152         V                 4.730323          4.255239
 153         V                 4.730323          4.255238
 154         V                 4.762801          3.149608
 155         V                 4.928175          6.489719
 156         V                 4.928176          4.313166
 157         V                 5.082828          6.489722
 158         V                 5.082828          6.489721
 159         V                 5.168886          3.136309
 160         V              1000.000000          3.649098
 161         V              1000.000000          3.683938
 162         V              1000.000000          3.683938
 163         V              1000.000000          3.649099
 164         V              1000.000000          3.649098
 165         V              1000.000000          3.683938
 166         V              1000.000000          3.649100
 167         V              1000.000000          3.649100
 168         V              1000.000000          3.649099
 169         V              1000.000000          3.115491
 170         V              1000.000000          3.115491
 171         V              1000.000000          3.133740
 172         V              1000.000000          3.041592
 173         V              1000.000000          3.021829
 174         V              1000.000000          3.041593
 175         V              1000.000000          3.580157
 176         V              1000.000000          3.100908
 177         V              1000.000000          3.115491
 178         V              1000.000000          3.027681
 179         V              1000.000000          3.580156
 180         V              1000.000000          3.021829
 181         V              1000.000000          3.041592
 182         V              1000.000000          3.133741
 183         V              1000.000000          3.580157
 184         V              1000.000000          3.100908
 185         V              1000.000000          3.027681
 186         V              1000.000000          3.021828
 187         V              1000.000000          3.133740
 188         V              1000.000000          3.100907
 189         V              1000.000000          3.133741
 190         V              1000.000000          3.133740
 191         V              1000.000000          3.041593
 192         V              1000.000000          3.041593
 193         V              1000.000000          3.027681
 194         V              1000.000000          3.041593
 195         V              1000.000000          3.133740
 Total kinetic energy from orbitals= 3.471359958716D+02
 No NMR shielding tensors so no spin-rotation constants.
 Leave Link  601 at Thu Jan 12 23:37:13 2023, MaxMem=   268435456 cpu:               0.8 elap:               0.2
 (Enter /public/home/zyli/senxu/soft/g16/l9999.exe)

 This type of calculation cannot be archived.


 THE NUMBERS ARE MEANINGLESS, BUT THE TRENDS ARE IMPORTANT.
     -- LARRY BURGGRAF
 Job cpu time:       0 days  0 hours  0 minutes 51.3 seconds.
 Elapsed time:       0 days  0 hours  0 minutes 12.8 seconds.
 File lengths (MBytes):  RWF=     10 Int=      0 D2E=      0 Chk=      4 Scr=      1
 Normal termination of Gaussian 16 at Thu Jan 12 23:37:13 2023.
