title                                                                   
SP        RHF                                                         6-31G(d)            
Number of atoms                            I               21
Info1-9                                    I   N=           9
          30          30           0           0           0         110
           1           1           2
Full Title                                 C   N=           1
title       
Route                                      C   N=           4
#p RHF/6-31g(d) nosymm int=nobasistransform     
Charge                                     I                0
Multiplicity                               I                1
Number of electrons                        I               66
Number of alpha electrons                  I               33
Number of beta electrons                   I               33
Number of basis functions                  I              159
Number of independent functions            I              159
Number of point charges in /Mol/           I                0
Number of translation vectors              I                0
Atomic numbers                             I   N=          21
           1           6           6           6           1           1
           1           6           6           1           6           1
           6           1           1           1           6           1
           1           6           1
Nuclear charges                            R   N=          21
  1.00000000E+00  6.00000000E+00  6.00000000E+00  6.00000000E+00  1.00000000E+00
  1.00000000E+00  1.00000000E+00  6.00000000E+00  6.00000000E+00  1.00000000E+00
  6.00000000E+00  1.00000000E+00  6.00000000E+00  1.00000000E+00  1.00000000E+00
  1.00000000E+00  6.00000000E+00  1.00000000E+00  1.00000000E+00  6.00000000E+00
  1.00000000E+00
Current cartesian coordinates              R   N=          63
  0.00000000E+00  0.00000000E+00  0.00000000E+00  0.00000000E+00  0.00000000E+00
  2.05511873E+00  2.28986807E+00  0.00000000E+00  8.18882580E+00 -1.23185577E-01
  2.57667181E+00  3.27307557E+00  3.76933088E+00  1.84871340E+00  1.97468254E+00
 -1.14912167E+00  2.78193575E+00  5.03923817E+00 -2.83249159E-01  4.21540262E+00
  2.04441911E+00  2.34803006E+00  1.15161800E+00  3.28520950E+00  3.48366098E+00
 -6.10154771E-02  5.59865757E+00  1.40387754E-02 -5.63266131E+00  5.48404379E+00
 -2.60271979E-02 -3.57802823E+00  5.50378954E+00  3.53290157E+00  1.40497358E-01
  9.81848593E+00 -2.62703679E+00 -2.41155321E+00  5.61295146E+00 -1.83582358E+00
 -3.65736838E+00  1.71559920E+00 -2.87673008E+00 -6.59843230E-01  6.65370679E+00
 -4.24299073E+00 -3.67327988E+00  5.74483923E+00 -1.17836140E+00 -2.34755952E+00
  3.15631128E+00  5.53858129E+00 -4.05043898E-02  5.57891183E+00  5.15840430E-01
  1.00408141E+00  8.43101122E+00  2.28796512E+00 -2.44310218E+00  6.71604696E+00
  3.61911277E+00 -3.86451071E+00  7.37267577E+00
Number of symbols in /Mol/                 I                0
Int Atom Types                             I   N=          21
           0           0           0           0           0           0
           0           0           0           0           0           0
           0           0           0           0           0           0
           0           0           0
Force Field                                I                0
Atom Types                                 C   N=          21
                                                            
                                                            
                                                            
                                                            
            
MM charges                                 R   N=          21
  0.00000000E+00  0.00000000E+00  0.00000000E+00  0.00000000E+00  0.00000000E+00
  0.00000000E+00  0.00000000E+00  0.00000000E+00  0.00000000E+00  0.00000000E+00
  0.00000000E+00  0.00000000E+00  0.00000000E+00  0.00000000E+00  0.00000000E+00
  0.00000000E+00  0.00000000E+00  0.00000000E+00  0.00000000E+00  0.00000000E+00
  0.00000000E+00
Integer atomic weights                     I   N=          21
           1          12          12          12           1           1
           1          12          12           1          12           1
          12           1           1           1          12           1
           1          12           1
Real atomic weights                        R   N=          21
  1.00782504E+00  1.20000000E+01  1.20000000E+01  1.20000000E+01  1.00782504E+00
  1.00782504E+00  1.00782504E+00  1.20000000E+01  1.20000000E+01  1.00782504E+00
  1.20000000E+01  1.00782504E+00  1.20000000E+01  1.00782504E+00  1.00782504E+00
  1.00782504E+00  1.20000000E+01  1.00782504E+00  1.00782504E+00  1.20000000E+01
  1.00782504E+00
Atom fragment info                         I   N=          21
           0           0           0           0           0           0
           0           0           0           0           0           0
           0           0           0           0           0           0
           0           0           0
Atom residue num                           I   N=          21
           0           0           0           0           0           0
           0           0           0           0           0           0
           0           0           0           0           0           0
           0           0           0
Nuclear spins                              I   N=          21
           1           0           0           0           1           1
           1           0           0           1           0           1
           0           1           1           1           0           1
           1           0           1
Nuclear ZEff                               R   N=          21
 -1.00000000E+00 -3.60000000E+00 -3.60000000E+00 -3.60000000E+00 -1.00000000E+00
 -1.00000000E+00 -1.00000000E+00 -3.60000000E+00 -3.60000000E+00 -1.00000000E+00
 -3.60000000E+00 -1.00000000E+00 -3.60000000E+00 -1.00000000E+00 -1.00000000E+00
 -1.00000000E+00 -3.60000000E+00 -1.00000000E+00 -1.00000000E+00 -3.60000000E+00
 -1.00000000E+00
Nuclear ZNuc                               R   N=          21
  1.00000000E+00  6.00000000E+00  6.00000000E+00  6.00000000E+00  1.00000000E+00
  1.00000000E+00  1.00000000E+00  6.00000000E+00  6.00000000E+00  1.00000000E+00
  6.00000000E+00  1.00000000E+00  6.00000000E+00  1.00000000E+00  1.00000000E+00
  1.00000000E+00  6.00000000E+00  1.00000000E+00  1.00000000E+00  6.00000000E+00
  1.00000000E+00
Nuclear QMom                               R   N=          21
  0.00000000E+00  0.00000000E+00  0.00000000E+00  0.00000000E+00  0.00000000E+00
  0.00000000E+00  0.00000000E+00  0.00000000E+00  0.00000000E+00  0.00000000E+00
  0.00000000E+00  0.00000000E+00  0.00000000E+00  0.00000000E+00  0.00000000E+00
  0.00000000E+00  0.00000000E+00  0.00000000E+00  0.00000000E+00  0.00000000E+00
  0.00000000E+00
Nuclear GFac                               R   N=          21
  2.79284600E+00  0.00000000E+00  0.00000000E+00  0.00000000E+00  2.79284600E+00
  2.79284600E+00  2.79284600E+00  0.00000000E+00  0.00000000E+00  2.79284600E+00
  0.00000000E+00  2.79284600E+00  0.00000000E+00  2.79284600E+00  2.79284600E+00
  2.79284600E+00  0.00000000E+00  2.79284600E+00  2.79284600E+00  0.00000000E+00
  2.79284600E+00
MicOpt                                     I   N=          21
          -1          -1          -1          -1          -1          -1
          -1          -1          -1          -1          -1          -1
          -1          -1          -1          -1          -1          -1
          -1          -1          -1
Number of residues                         I                0
Number of secondary structures             I                0
Number of contracted shells                I               60
Number of primitive shells                 I              147
Pure/Cartesian d shells                    I                1
Pure/Cartesian f shells                    I                0
Highest angular momentum                   I                2
Largest degree of contraction              I                6
Shell types                                I   N=          60
           0           0           0          -1          -1           2
           0          -1          -1           2           0          -1
          -1           2           0           0           0           0
           0           0           0          -1          -1           2
           0          -1          -1           2           0           0
           0          -1          -1           2           0           0
           0          -1          -1           2           0           0
           0           0           0           0           0          -1
          -1           2           0           0           0           0
           0          -1          -1           2           0           0
Number of primitives per shell             I   N=          60
           3           1           6           3           1           1
           6           3           1           1           6           3
           1           1           3           1           3           1
           3           1           6           3           1           1
           6           3           1           1           3           1
           6           3           1           1           3           1
           6           3           1           1           3           1
           3           1           3           1           6           3
           1           1           3           1           3           1
           6           3           1           1           3           1
Shell to atom map                          I   N=          60
           1           1           2           2           2           2
           3           3           3           3           4           4
           4           4           5           5           6           6
           7           7           8           8           8           8
           9           9           9           9          10          10
          11          11          11          11          12          12
          13          13          13          13          14          14
          15          15          16          16          17          17
          17          17          18          18          19          19
          20          20          20          20          21          21
Primitive exponents                        R   N=         147
  1.87311370E+01  2.82539436E+00  6.40121692E-01  1.61277759E-01  3.04752488E+03
  4.57369518E+02  1.03948685E+02  2.92101553E+01  9.28666296E+00  3.16392696E+00
  7.86827235E+00  1.88128854E+00  5.44249258E-01  1.68714478E-01  8.00000000E-01
  3.04752488E+03  4.57369518E+02  1.03948685E+02  2.92101553E+01  9.28666296E+00
  3.16392696E+00  7.86827235E+00  1.88128854E+00  5.44249258E-01  1.68714478E-01
  8.00000000E-01  3.04752488E+03  4.57369518E+02  1.03948685E+02  2.92101553E+01
  9.28666296E+00  3.16392696E+00  7.86827235E+00  1.88128854E+00  5.44249258E-01
  1.68714478E-01  8.00000000E-01  1.87311370E+01  2.82539436E+00  6.40121692E-01
  1.61277759E-01  1.87311370E+01  2.82539436E+00  6.40121692E-01  1.61277759E-01
  1.87311370E+01  2.82539436E+00  6.40121692E-01  1.61277759E-01  3.04752488E+03
  4.57369518E+02  1.03948685E+02  2.92101553E+01  9.28666296E+00  3.16392696E+00
  7.86827235E+00  1.88128854E+00  5.44249258E-01  1.68714478E-01  8.00000000E-01
  3.04752488E+03  4.57369518E+02  1.03948685E+02  2.92101553E+01  9.28666296E+00
  3.16392696E+00  7.86827235E+00  1.88128854E+00  5.44249258E-01  1.68714478E-01
  8.00000000E-01  1.87311370E+01  2.82539436E+00  6.40121692E-01  1.61277759E-01
  3.04752488E+03  4.57369518E+02  1.03948685E+02  2.92101553E+01  9.28666296E+00
  3.16392696E+00  7.86827235E+00  1.88128854E+00  5.44249258E-01  1.68714478E-01
  8.00000000E-01  1.87311370E+01  2.82539436E+00  6.40121692E-01  1.61277759E-01
  3.04752488E+03  4.57369518E+02  1.03948685E+02  2.92101553E+01  9.28666296E+00
  3.16392696E+00  7.86827235E+00  1.88128854E+00  5.44249258E-01  1.68714478E-01
  8.00000000E-01  1.87311370E+01  2.82539436E+00  6.40121692E-01  1.61277759E-01
  1.87311370E+01  2.82539436E+00  6.40121692E-01  1.61277759E-01  1.87311370E+01
  2.82539436E+00  6.40121692E-01  1.61277759E-01  3.04752488E+03  4.57369518E+02
  1.03948685E+02  2.92101553E+01  9.28666296E+00  3.16392696E+00  7.86827235E+00
  1.88128854E+00  5.44249258E-01  1.68714478E-01  8.00000000E-01  1.87311370E+01
  2.82539436E+00  6.40121692E-01  1.61277759E-01  1.87311370E+01  2.82539436E+00
  6.40121692E-01  1.61277759E-01  3.04752488E+03  4.57369518E+02  1.03948685E+02
  2.92101553E+01  9.28666296E+00  3.16392696E+00  7.86827235E+00  1.88128854E+00
  5.44249258E-01  1.68714478E-01  8.00000000E-01  1.87311370E+01  2.82539436E+00
  6.40121692E-01  1.61277759E-01
Contraction coefficients                   R   N=         147
  3.34946043E-02  2.34726953E-01  8.13757326E-01  1.00000000E+00  1.83473713E-03
  1.40373228E-02  6.88426223E-02  2.32184443E-01  4.67941348E-01  3.62311985E-01
 -1.19332420E-01 -1.60854152E-01  1.14345644E+00  1.00000000E+00  1.00000000E+00
  1.83473713E-03  1.40373228E-02  6.88426223E-02  2.32184443E-01  4.67941348E-01
  3.62311985E-01 -1.19332420E-01 -1.60854152E-01  1.14345644E+00  1.00000000E+00
  1.00000000E+00  1.83473713E-03  1.40373228E-02  6.88426223E-02  2.32184443E-01
  4.67941348E-01  3.62311985E-01 -1.19332420E-01 -1.60854152E-01  1.14345644E+00
  1.00000000E+00  1.00000000E+00  3.34946043E-02  2.34726953E-01  8.13757326E-01
  1.00000000E+00  3.34946043E-02  2.34726953E-01  8.13757326E-01  1.00000000E+00
  3.34946043E-02  2.34726953E-01  8.13757326E-01  1.00000000E+00  1.83473713E-03
  1.40373228E-02  6.88426223E-02  2.32184443E-01  4.67941348E-01  3.62311985E-01
 -1.19332420E-01 -1.60854152E-01  1.14345644E+00  1.00000000E+00  1.00000000E+00
  1.83473713E-03  1.40373228E-02  6.88426223E-02  2.32184443E-01  4.67941348E-01
  3.62311985E-01 -1.19332420E-01 -1.60854152E-01  1.14345644E+00  1.00000000E+00
  1.00000000E+00  3.34946043E-02  2.34726953E-01  8.13757326E-01  1.00000000E+00
  1.83473713E-03  1.40373228E-02  6.88426223E-02  2.32184443E-01  4.67941348E-01
  3.62311985E-01 -1.19332420E-01 -1.60854152E-01  1.14345644E+00  1.00000000E+00
  1.00000000E+00  3.34946043E-02  2.34726953E-01  8.13757326E-01  1.00000000E+00
  1.83473713E-03  1.40373228E-02  6.88426223E-02  2.32184443E-01  4.67941348E-01
  3.62311985E-01 -1.19332420E-01 -1.60854152E-01  1.14345644E+00  1.00000000E+00
  1.00000000E+00  3.34946043E-02  2.34726953E-01  8.13757326E-01  1.00000000E+00
  3.34946043E-02  2.34726953E-01  8.13757326E-01  1.00000000E+00  3.34946043E-02
  2.34726953E-01  8.13757326E-01  1.00000000E+00  1.83473713E-03  1.40373228E-02
  6.88426223E-02  2.32184443E-01  4.67941348E-01  3.62311985E-01 -1.19332420E-01
 -1.60854152E-01  1.14345644E+00  1.00000000E+00  1.00000000E+00  3.34946043E-02
  2.34726953E-01  8.13757326E-01  1.00000000E+00  3.34946043E-02  2.34726953E-01
  8.13757326E-01  1.00000000E+00  1.83473713E-03  1.40373228E-02  6.88426223E-02
  2.32184443E-01  4.67941348E-01  3.62311985E-01 -1.19332420E-01 -1.60854152E-01
  1.14345644E+00  1.00000000E+00  1.00000000E+00  3.34946043E-02  2.34726953E-01
  8.13757326E-01  1.00000000E+00
P(S=P) Contraction coefficients            R   N=         147
  0.00000000E+00  0.00000000E+00  0.00000000E+00  0.00000000E+00  0.00000000E+00
  0.00000000E+00  0.00000000E+00  0.00000000E+00  0.00000000E+00  0.00000000E+00
  6.89990666E-02  3.16423961E-01  7.44308291E-01  1.00000000E+00  0.00000000E+00
  0.00000000E+00  0.00000000E+00  0.00000000E+00  0.00000000E+00  0.00000000E+00
  0.00000000E+00  6.89990666E-02  3.16423961E-01  7.44308291E-01  1.00000000E+00
  0.00000000E+00  0.00000000E+00  0.00000000E+00  0.00000000E+00  0.00000000E+00
  0.00000000E+00  0.00000000E+00  6.89990666E-02  3.16423961E-01  7.44308291E-01
  1.00000000E+00  0.00000000E+00  0.00000000E+00  0.00000000E+00  0.00000000E+00
  0.00000000E+00  0.00000000E+00  0.00000000E+00  0.00000000E+00  0.00000000E+00
  0.00000000E+00  0.00000000E+00  0.00000000E+00  0.00000000E+00  0.00000000E+00
  0.00000000E+00  0.00000000E+00  0.00000000E+00  0.00000000E+00  0.00000000E+00
  6.89990666E-02  3.16423961E-01  7.44308291E-01  1.00000000E+00  0.00000000E+00
  0.00000000E+00  0.00000000E+00  0.00000000E+00  0.00000000E+00  0.00000000E+00
  0.00000000E+00  6.89990666E-02  3.16423961E-01  7.44308291E-01  1.00000000E+00
  0.00000000E+00  0.00000000E+00  0.00000000E+00  0.00000000E+00  0.00000000E+00
  0.00000000E+00  0.00000000E+00  0.00000000E+00  0.00000000E+00  0.00000000E+00
  0.00000000E+00  6.89990666E-02  3.16423961E-01  7.44308291E-01  1.00000000E+00
  0.00000000E+00  0.00000000E+00  0.00000000E+00  0.00000000E+00  0.00000000E+00
  0.00000000E+00  0.00000000E+00  0.00000000E+00  0.00000000E+00  0.00000000E+00
  0.00000000E+00  6.89990666E-02  3.16423961E-01  7.44308291E-01  1.00000000E+00
  0.00000000E+00  0.00000000E+00  0.00000000E+00  0.00000000E+00  0.00000000E+00
  0.00000000E+00  0.00000000E+00  0.00000000E+00  0.00000000E+00  0.00000000E+00
  0.00000000E+00  0.00000000E+00  0.00000000E+00  0.00000000E+00  0.00000000E+00
  0.00000000E+00  0.00000000E+00  0.00000000E+00  0.00000000E+00  6.89990666E-02
  3.16423961E-01  7.44308291E-01  1.00000000E+00  0.00000000E+00  0.00000000E+00
  0.00000000E+00  0.00000000E+00  0.00000000E+00  0.00000000E+00  0.00000000E+00
  0.00000000E+00  0.00000000E+00  0.00000000E+00  0.00000000E+00  0.00000000E+00
  0.00000000E+00  0.00000000E+00  0.00000000E+00  6.89990666E-02  3.16423961E-01
  7.44308291E-01  1.00000000E+00  0.00000000E+00  0.00000000E+00  0.00000000E+00
  0.00000000E+00  0.00000000E+00
Coordinates of each shell                  R   N=         180
  0.00000000E+00  0.00000000E+00  0.00000000E+00  0.00000000E+00  0.00000000E+00
  0.00000000E+00  0.00000000E+00  0.00000000E+00  2.05511873E+00  0.00000000E+00
  0.00000000E+00  2.05511873E+00  0.00000000E+00  0.00000000E+00  2.05511873E+00
  0.00000000E+00  0.00000000E+00  2.05511873E+00  2.28986807E+00  0.00000000E+00
  8.18882580E+00  2.28986807E+00  0.00000000E+00  8.18882580E+00  2.28986807E+00
  0.00000000E+00  8.18882580E+00  2.28986807E+00  0.00000000E+00  8.18882580E+00
 -1.23185577E-01  2.57667181E+00  3.27307557E+00 -1.23185577E-01  2.57667181E+00
  3.27307557E+00 -1.23185577E-01  2.57667181E+00  3.27307557E+00 -1.23185577E-01
  2.57667181E+00  3.27307557E+00  3.76933088E+00  1.84871340E+00  1.97468254E+00
  3.76933088E+00  1.84871340E+00  1.97468254E+00 -1.14912167E+00  2.78193575E+00
  5.03923817E+00 -1.14912167E+00  2.78193575E+00  5.03923817E+00 -2.83249159E-01
  4.21540262E+00  2.04441911E+00 -2.83249159E-01  4.21540262E+00  2.04441911E+00
  2.34803006E+00  1.15161800E+00  3.28520950E+00  2.34803006E+00  1.15161800E+00
  3.28520950E+00  2.34803006E+00  1.15161800E+00  3.28520950E+00  2.34803006E+00
  1.15161800E+00  3.28520950E+00  3.48366098E+00 -6.10154771E-02  5.59865757E+00
  3.48366098E+00 -6.10154771E-02  5.59865757E+00  3.48366098E+00 -6.10154771E-02
  5.59865757E+00  3.48366098E+00 -6.10154771E-02  5.59865757E+00  1.40387754E-02
 -5.63266131E+00  5.48404379E+00  1.40387754E-02 -5.63266131E+00  5.48404379E+00
 -2.60271979E-02 -3.57802823E+00  5.50378954E+00 -2.60271979E-02 -3.57802823E+00
  5.50378954E+00 -2.60271979E-02 -3.57802823E+00  5.50378954E+00 -2.60271979E-02
 -3.57802823E+00  5.50378954E+00  3.53290157E+00  1.40497358E-01  9.81848593E+00
  3.53290157E+00  1.40497358E-01  9.81848593E+00 -2.62703679E+00 -2.41155321E+00
  5.61295146E+00 -2.62703679E+00 -2.41155321E+00  5.61295146E+00 -2.62703679E+00
 -2.41155321E+00  5.61295146E+00 -2.62703679E+00 -2.41155321E+00  5.61295146E+00
 -1.83582358E+00 -3.65736838E+00  1.71559920E+00 -1.83582358E+00 -3.65736838E+00
  1.71559920E+00 -2.87673008E+00 -6.59843230E-01  6.65370679E+00 -2.87673008E+00
 -6.59843230E-01  6.65370679E+00 -4.24299073E+00 -3.67327988E+00  5.74483923E+00
 -4.24299073E+00 -3.67327988E+00  5.74483923E+00 -1.17836140E+00 -2.34755952E+00
  3.15631128E+00 -1.17836140E+00 -2.34755952E+00  3.15631128E+00 -1.17836140E+00
 -2.34755952E+00  3.15631128E+00 -1.17836140E+00 -2.34755952E+00  3.15631128E+00
  5.53858129E+00 -4.05043898E-02  5.57891183E+00  5.53858129E+00 -4.05043898E-02
  5.57891183E+00  5.15840430E-01  1.00408141E+00  8.43101122E+00  5.15840430E-01
  1.00408141E+00  8.43101122E+00  2.28796512E+00 -2.44310218E+00  6.71604696E+00
  2.28796512E+00 -2.44310218E+00  6.71604696E+00  2.28796512E+00 -2.44310218E+00
  6.71604696E+00  2.28796512E+00 -2.44310218E+00  6.71604696E+00  3.61911277E+00
 -3.86451071E+00  7.37267577E+00  3.61911277E+00 -3.86451071E+00  7.37267577E+00
Num ILSW                                   I              100
ILSW                                       I   N=         100
           0           1           0           0           2           0
           0           0           0           0           0          -1
           5           0           0           0           0           0
           0           0           0           0           0           0
           1           1           0           0           0           0
           0           0      100000           0          -1           0
           0           0           0           0           0           0
           0           0           0           1           0           0
           0 -2000000000           1           0           0           0
           0           0           4          52           0           0
           0           0           0           0           0           0
           0           0           0          21           0           1
           0           0           0           0           0           0
           0           0           0           0           0           0
           0           0           0           0           0           0
           0           0           0           0           0           0
           0           0           0           0
Num RLSW                                   I               52
RLSW                                       R   N=          52
  1.00000000E+00  1.00000000E+00  1.00000000E+00  1.00000000E+00  1.00000000E+00
  0.00000000E+00  0.00000000E+00  1.00000000E+00  0.00000000E+00  0.00000000E+00
  0.00000000E+00  0.00000000E+00  1.00000000E+00  0.00000000E+00  0.00000000E+00
  0.00000000E+00  0.00000000E+00  1.00000000E+00  0.00000000E+00  0.00000000E+00
  0.00000000E+00  0.00000000E+00  1.00000000E+00  0.00000000E+00  0.00000000E+00
  0.00000000E+00  0.00000000E+00  1.00000000E+00  0.00000000E+00  0.00000000E+00
  0.00000000E+00  0.00000000E+00  1.00000000E+00  0.00000000E+00  0.00000000E+00
  0.00000000E+00  0.00000000E+00  0.00000000E+00  1.00000000E+00  1.00000000E+00
  0.00000000E+00  1.00000000E+00  0.00000000E+00  0.00000000E+00  0.00000000E+00
  0.00000000E+00  0.00000000E+00  0.00000000E+00  0.00000000E+00  0.00000000E+00
  0.00000000E+00  0.00000000E+00
MxBond                                     I                4
NBond                                      I   N=          21
           1           4           4           4           1           1
           1           4           4           1           4           1
           4           1           1           1           4           1
           1           4           1
IBond                                      I   N=          84
           2           0           0           0           1           4
           8          17           9          12          19          20
           2           6           7           8           8           0
           0           0           4           0           0           0
           4           0           0           0           2           4
           5           9           3           8          18          20
          11           0           0           0          10          13
          17          20           3           0           0           0
          11          15          16          17          17           0
           0           0          13           0           0           0
          13           0           0           0           2          11
          13          14           9           0           0           0
           3           0           0           0           3           9
          11          21          20           0           0           0
RBond                                      R   N=          84
  1.00000000E+00  0.00000000E+00  0.00000000E+00  0.00000000E+00  1.00000000E+00
  1.00000000E+00  1.00000000E+00  1.00000000E+00  1.00000000E+00  1.00000000E+00
  1.00000000E+00  1.00000000E+00  1.00000000E+00  1.00000000E+00  1.00000000E+00
  1.00000000E+00  1.00000000E+00  0.00000000E+00  0.00000000E+00  0.00000000E+00
  1.00000000E+00  0.00000000E+00  0.00000000E+00  0.00000000E+00  1.00000000E+00
  0.00000000E+00  0.00000000E+00  0.00000000E+00  1.00000000E+00  1.00000000E+00
  1.00000000E+00  1.00000000E+00  1.00000000E+00  1.00000000E+00  1.00000000E+00
  1.00000000E+00  1.00000000E+00  0.00000000E+00  0.00000000E+00  0.00000000E+00
  1.00000000E+00  1.00000000E+00  1.00000000E+00  1.00000000E+00  1.00000000E+00
  0.00000000E+00  0.00000000E+00  0.00000000E+00  1.00000000E+00  1.00000000E+00
  1.00000000E+00  1.00000000E+00  1.00000000E+00  0.00000000E+00  0.00000000E+00
  0.00000000E+00  1.00000000E+00  0.00000000E+00  0.00000000E+00  0.00000000E+00
  1.00000000E+00  0.00000000E+00  0.00000000E+00  0.00000000E+00  1.00000000E+00
  1.00000000E+00  1.00000000E+00  1.00000000E+00  1.00000000E+00  0.00000000E+00
  0.00000000E+00  0.00000000E+00  1.00000000E+00  0.00000000E+00  0.00000000E+00
  0.00000000E+00  1.00000000E+00  1.00000000E+00  1.00000000E+00  1.00000000E+00
  1.00000000E+00  0.00000000E+00  0.00000000E+00  0.00000000E+00
Virial Ratio                               R      2.001605758948977E+00
SCF Energy                                 R     -3.476934126013549E+02
Total Energy                               R     -3.476934126013549E+02
RMS Density                                R      4.476429943362853E-09
Job Status                                 I                1
Nuclear derivative order                   I                0
External E-field                           R   N=          35
  0.00000000E+00  0.00000000E+00  0.00000000E+00  0.00000000E+00  0.00000000E+00
  0.00000000E+00  0.00000000E+00  0.00000000E+00  0.00000000E+00  0.00000000E+00
  0.00000000E+00  0.00000000E+00  0.00000000E+00  0.00000000E+00  0.00000000E+00
  0.00000000E+00  0.00000000E+00  0.00000000E+00  0.00000000E+00  0.00000000E+00
  0.00000000E+00  0.00000000E+00  0.00000000E+00  0.00000000E+00  0.00000000E+00
  0.00000000E+00  0.00000000E+00  0.00000000E+00  0.00000000E+00  0.00000000E+00
  0.00000000E+00  0.00000000E+00  0.00000000E+00  0.00000000E+00  0.00000000E+00
IOpCl                                      I                0
IROHF                                      I                0
Alpha Orbital Energies                     R   N=         159
 -1.12276708E+01 -1.12273950E+01 -1.12273949E+01 -1.12267480E+01 -1.12267479E+01
 -1.12264245E+01 -1.12189126E+01 -1.12189126E+01 -1.12188966E+01 -1.18032124E+00
 -1.10523543E+00 -1.10523530E+00 -8.75417106E-01 -8.75416861E-01 -8.60412307E-01
 -7.64380904E-01 -7.64380743E-01 -7.04044119E-01 -6.70995629E-01 -6.51963449E-01
 -6.29515673E-01 -6.29515489E-01 -5.31525094E-01 -5.31524923E-01 -5.24838743E-01
 -4.89072980E-01 -4.89072831E-01 -4.83579390E-01 -4.46879861E-01 -4.46879654E-01
 -3.72433629E-01 -3.51712822E-01 -3.51712445E-01  2.04793613E-01  2.40436218E-01
  2.61912835E-01  2.61912932E-01  2.86373976E-01  2.86374125E-01  3.22989668E-01
  3.22989758E-01  3.43917470E-01  3.43917538E-01  3.44587649E-01  3.64107893E-01
  3.64108002E-01  3.65205689E-01  3.78921149E-01  4.13505885E-01  4.13506112E-01
  4.48567372E-01  4.61382083E-01  4.61382223E-01  5.57826602E-01  5.75130511E-01
  5.75130743E-01  6.19092030E-01  6.62920631E-01  6.97964483E-01  7.49483576E-01
  7.49483612E-01  7.88791093E-01  8.18198516E-01  8.18198723E-01  8.44998429E-01
  8.56504942E-01  8.56505305E-01  8.83715767E-01  8.83715974E-01  8.85252151E-01
  8.99129706E-01  8.99631209E-01  8.99631330E-01  9.25474254E-01  9.53932262E-01
  9.53932419E-01  1.00671267E+00  1.00671279E+00  1.03011294E+00  1.09853390E+00
  1.09853417E+00  1.14798376E+00  1.16011689E+00  1.16181501E+00  1.16416911E+00
  1.16416925E+00  1.17543777E+00  1.17543815E+00  1.19233144E+00  1.19233188E+00
  1.19543446E+00  1.24129281E+00  1.27867150E+00  1.27867173E+00  1.42980318E+00
  1.43952718E+00  1.43952736E+00  1.53599243E+00  1.53599264E+00  1.61565879E+00
  1.65470525E+00  1.65470555E+00  1.73600415E+00  1.79088413E+00  1.79088465E+00
  1.90724202E+00  1.96221384E+00  1.98943041E+00  1.98943081E+00  1.99401173E+00
  2.00460239E+00  2.00460259E+00  2.09408767E+00  2.13691045E+00  2.13691105E+00
  2.23297182E+00  2.23297224E+00  2.25814410E+00  2.25814443E+00  2.28820575E+00
  2.33681179E+00  2.37522124E+00  2.37522143E+00  2.41880784E+00  2.49268251E+00
  2.49268276E+00  2.55673087E+00  2.61719692E+00  2.61719714E+00  2.64636046E+00
  2.64636081E+00  2.70936510E+00  2.70936581E+00  2.72985167E+00  2.75441331E+00
  2.78996166E+00  2.82737715E+00  2.82737752E+00  2.83624378E+00  2.83624394E+00
  2.98302820E+00  3.05197154E+00  3.05197206E+00  3.08981892E+00  3.08981944E+00
  3.19475907E+00  3.19475960E+00  3.20070314E+00  3.33068272E+00  3.38049173E+00
  4.44967869E+00  4.73032261E+00  4.73032278E+00  4.76280103E+00  4.92817533E+00
  4.92817559E+00  5.08282762E+00  5.08282799E+00  5.16888564E+00
Alpha MO coefficients                      R   N=       25281