title                                                                   
Guess=OnlyRHF                                                         6-31G(d)            
Number of atoms                            I               21
Info1-9                                    I   N=           9
          31           6           0           0           0         100
           3           1           2
Full Title                                 C   N=           1
title       
Route                                      C   N=           8
#p RHF/6-31g(d) nosymm int=nobasistransform guess(read,only)
 geom=allcheck pop=SaveNLMOs        
Charge                                     I                0
Multiplicity                               I                1
Number of electrons                        I               66
Number of alpha electrons                  I               33
Number of beta electrons                   I               33
Number of basis functions                  I              159
Number of independent functions            I              159
Number of point charges in /Mol/           I                0
Number of translation vectors              I                0
Atomic numbers                             I   N=          21
           1           6           6           6           1           1
           1           6           6           1           6           1
           6           1           1           1           6           1
           1           6           1
Nuclear charges                            R   N=          21
  1.00000000E+00  6.00000000E+00  6.00000000E+00  6.00000000E+00  1.00000000E+00
  1.00000000E+00  1.00000000E+00  6.00000000E+00  6.00000000E+00  1.00000000E+00
  6.00000000E+00  1.00000000E+00  6.00000000E+00  1.00000000E+00  1.00000000E+00
  1.00000000E+00  6.00000000E+00  1.00000000E+00  1.00000000E+00  6.00000000E+00
  1.00000000E+00
Current cartesian coordinates              R   N=          63
  0.00000000E+00  0.00000000E+00  0.00000000E+00  0.00000000E+00  0.00000000E+00
  2.05511873E+00  2.28986807E+00  0.00000000E+00  8.18882580E+00 -1.23185577E-01
  2.57667181E+00  3.27307557E+00  3.76933088E+00  1.84871340E+00  1.97468254E+00
 -1.14912167E+00  2.78193575E+00  5.03923817E+00 -2.83249159E-01  4.21540262E+00
  2.04441911E+00  2.34803006E+00  1.15161800E+00  3.28520950E+00  3.48366098E+00
 -6.10154771E-02  5.59865757E+00  1.40387754E-02 -5.63266131E+00  5.48404379E+00
 -2.60271979E-02 -3.57802823E+00  5.50378954E+00  3.53290157E+00  1.40497358E-01
  9.81848593E+00 -2.62703679E+00 -2.41155321E+00  5.61295146E+00 -1.83582358E+00
 -3.65736838E+00  1.71559920E+00 -2.87673008E+00 -6.59843230E-01  6.65370679E+00
 -4.24299073E+00 -3.67327988E+00  5.74483923E+00 -1.17836140E+00 -2.34755952E+00
  3.15631128E+00  5.53858129E+00 -4.05043898E-02  5.57891183E+00  5.15840430E-01
  1.00408141E+00  8.43101122E+00  2.28796512E+00 -2.44310218E+00  6.71604696E+00
  3.61911277E+00 -3.86451071E+00  7.37267577E+00
Number of symbols in /Mol/                 I                0
Int Atom Types                             I   N=          21
           0           0           0           0           0           0
           0           0           0           0           0           0
           0           0           0           0           0           0
           0           0           0
Force Field                                I                0
Atom Types                                 C   N=          21
                                                            
                                                            
                                                            
                                                            
            
MM charges                                 R   N=          21
  0.00000000E+00  0.00000000E+00  0.00000000E+00  0.00000000E+00  0.00000000E+00
  0.00000000E+00  0.00000000E+00  0.00000000E+00  0.00000000E+00  0.00000000E+00
  0.00000000E+00  0.00000000E+00  0.00000000E+00  0.00000000E+00  0.00000000E+00
  0.00000000E+00  0.00000000E+00  0.00000000E+00  0.00000000E+00  0.00000000E+00
  0.00000000E+00
Integer atomic weights                     I   N=          21
           1          12          12          12           1           1
           1          12          12           1          12           1
          12           1           1           1          12           1
           1          12           1
Real atomic weights                        R   N=          21
  1.00782504E+00  1.20000000E+01  1.20000000E+01  1.20000000E+01  1.00782504E+00
  1.00782504E+00  1.00782504E+00  1.20000000E+01  1.20000000E+01  1.00782504E+00
  1.20000000E+01  1.00782504E+00  1.20000000E+01  1.00782504E+00  1.00782504E+00
  1.00782504E+00  1.20000000E+01  1.00782504E+00  1.00782504E+00  1.20000000E+01
  1.00782504E+00
Atom fragment info                         I   N=          21
           0           0           0           0           0           0
           0           0           0           0           0           0
           0           0           0           0           0           0
           0           0           0
Atom residue num                           I   N=          21
           0           0           0           0           0           0
           0           0           0           0           0           0
           0           0           0           0           0           0
           0           0           0
Nuclear spins                              I   N=          21
           1           0           0           0           1           1
           1           0           0           1           0           1
           0           1           1           1           0           1
           1           0           1
Nuclear ZEff                               R   N=          21
 -1.00000000E+00 -3.60000000E+00 -3.60000000E+00 -3.60000000E+00 -1.00000000E+00
 -1.00000000E+00 -1.00000000E+00 -3.60000000E+00 -3.60000000E+00 -1.00000000E+00
 -3.60000000E+00 -1.00000000E+00 -3.60000000E+00 -1.00000000E+00 -1.00000000E+00
 -1.00000000E+00 -3.60000000E+00 -1.00000000E+00 -1.00000000E+00 -3.60000000E+00
 -1.00000000E+00
Nuclear ZNuc                               R   N=          21
  1.00000000E+00  6.00000000E+00  6.00000000E+00  6.00000000E+00  1.00000000E+00
  1.00000000E+00  1.00000000E+00  6.00000000E+00  6.00000000E+00  1.00000000E+00
  6.00000000E+00  1.00000000E+00  6.00000000E+00  1.00000000E+00  1.00000000E+00
  1.00000000E+00  6.00000000E+00  1.00000000E+00  1.00000000E+00  6.00000000E+00
  1.00000000E+00
Nuclear QMom                               R   N=          21
  0.00000000E+00  0.00000000E+00  0.00000000E+00  0.00000000E+00  0.00000000E+00
  0.00000000E+00  0.00000000E+00  0.00000000E+00  0.00000000E+00  0.00000000E+00
  0.00000000E+00  0.00000000E+00  0.00000000E+00  0.00000000E+00  0.00000000E+00
  0.00000000E+00  0.00000000E+00  0.00000000E+00  0.00000000E+00  0.00000000E+00
  0.00000000E+00
Nuclear GFac                               R   N=          21
  2.79284600E+00  0.00000000E+00  0.00000000E+00  0.00000000E+00  2.79284600E+00
  2.79284600E+00  2.79284600E+00  0.00000000E+00  0.00000000E+00  2.79284600E+00
  0.00000000E+00  2.79284600E+00  0.00000000E+00  2.79284600E+00  2.79284600E+00
  2.79284600E+00  0.00000000E+00  2.79284600E+00  2.79284600E+00  0.00000000E+00
  2.79284600E+00
MicOpt                                     I   N=          21
          -1          -1          -1          -1          -1          -1
          -1          -1          -1          -1          -1          -1
          -1          -1          -1          -1          -1          -1
          -1          -1          -1
Number of residues                         I                0
Number of secondary structures             I                0
Number of contracted shells                I               60
Number of primitive shells                 I              147
Pure/Cartesian d shells                    I                1
Pure/Cartesian f shells                    I                0
Highest angular momentum                   I                2
Largest degree of contraction              I                6
Shell types                                I   N=          60
           0           0           0          -1          -1           2
           0          -1          -1           2           0          -1
          -1           2           0           0           0           0
           0           0           0          -1          -1           2
           0          -1          -1           2           0           0
           0          -1          -1           2           0           0
           0          -1          -1           2           0           0
           0           0           0           0           0          -1
          -1           2           0           0           0           0
           0          -1          -1           2           0           0
Number of primitives per shell             I   N=          60
           3           1           6           3           1           1
           6           3           1           1           6           3
           1           1           3           1           3           1
           3           1           6           3           1           1
           6           3           1           1           3           1
           6           3           1           1           3           1
           6           3           1           1           3           1
           3           1           3           1           6           3
           1           1           3           1           3           1
           6           3           1           1           3           1
Shell to atom map                          I   N=          60
           1           1           2           2           2           2
           3           3           3           3           4           4
           4           4           5           5           6           6
           7           7           8           8           8           8
           9           9           9           9          10          10
          11          11          11          11          12          12
          13          13          13          13          14          14
          15          15          16          16          17          17
          17          17          18          18          19          19
          20          20          20          20          21          21
Primitive exponents                        R   N=         147
  1.87311370E+01  2.82539436E+00  6.40121692E-01  1.61277759E-01  3.04752488E+03
  4.57369518E+02  1.03948685E+02  2.92101553E+01  9.28666296E+00  3.16392696E+00
  7.86827235E+00  1.88128854E+00  5.44249258E-01  1.68714478E-01  8.00000000E-01
  3.04752488E+03  4.57369518E+02  1.03948685E+02  2.92101553E+01  9.28666296E+00
  3.16392696E+00  7.86827235E+00  1.88128854E+00  5.44249258E-01  1.68714478E-01
  8.00000000E-01  3.04752488E+03  4.57369518E+02  1.03948685E+02  2.92101553E+01
  9.28666296E+00  3.16392696E+00  7.86827235E+00  1.88128854E+00  5.44249258E-01
  1.68714478E-01  8.00000000E-01  1.87311370E+01  2.82539436E+00  6.40121692E-01
  1.61277759E-01  1.87311370E+01  2.82539436E+00  6.40121692E-01  1.61277759E-01
  1.87311370E+01  2.82539436E+00  6.40121692E-01  1.61277759E-01  3.04752488E+03
  4.57369518E+02  1.03948685E+02  2.92101553E+01  9.28666296E+00  3.16392696E+00
  7.86827235E+00  1.88128854E+00  5.44249258E-01  1.68714478E-01  8.00000000E-01
  3.04752488E+03  4.57369518E+02  1.03948685E+02  2.92101553E+01  9.28666296E+00
  3.16392696E+00  7.86827235E+00  1.88128854E+00  5.44249258E-01  1.68714478E-01
  8.00000000E-01  1.87311370E+01  2.82539436E+00  6.40121692E-01  1.61277759E-01
  3.04752488E+03  4.57369518E+02  1.03948685E+02  2.92101553E+01  9.28666296E+00
  3.16392696E+00  7.86827235E+00  1.88128854E+00  5.44249258E-01  1.68714478E-01
  8.00000000E-01  1.87311370E+01  2.82539436E+00  6.40121692E-01  1.61277759E-01
  3.04752488E+03  4.57369518E+02  1.03948685E+02  2.92101553E+01  9.28666296E+00
  3.16392696E+00  7.86827235E+00  1.88128854E+00  5.44249258E-01  1.68714478E-01
  8.00000000E-01  1.87311370E+01  2.82539436E+00  6.40121692E-01  1.61277759E-01
  1.87311370E+01  2.82539436E+00  6.40121692E-01  1.61277759E-01  1.87311370E+01
  2.82539436E+00  6.40121692E-01  1.61277759E-01  3.04752488E+03  4.57369518E+02
  1.03948685E+02  2.92101553E+01  9.28666296E+00  3.16392696E+00  7.86827235E+00
  1.88128854E+00  5.44249258E-01  1.68714478E-01  8.00000000E-01  1.87311370E+01
  2.82539436E+00  6.40121692E-01  1.61277759E-01  1.87311370E+01  2.82539436E+00
  6.40121692E-01  1.61277759E-01  3.04752488E+03  4.57369518E+02  1.03948685E+02
  2.92101553E+01  9.28666296E+00  3.16392696E+00  7.86827235E+00  1.88128854E+00
  5.44249258E-01  1.68714478E-01  8.00000000E-01  1.87311370E+01  2.82539436E+00
  6.40121692E-01  1.61277759E-01
Contraction coefficients                   R   N=         147
  3.34946043E-02  2.34726953E-01  8.13757326E-01  1.00000000E+00  1.83473713E-03
  1.40373228E-02  6.88426223E-02  2.32184443E-01  4.67941348E-01  3.62311985E-01
 -1.19332420E-01 -1.60854152E-01  1.14345644E+00  1.00000000E+00  1.00000000E+00
  1.83473713E-03  1.40373228E-02  6.88426223E-02  2.32184443E-01  4.67941348E-01
  3.62311985E-01 -1.19332420E-01 -1.60854152E-01  1.14345644E+00  1.00000000E+00
  1.00000000E+00  1.83473713E-03  1.40373228E-02  6.88426223E-02  2.32184443E-01
  4.67941348E-01  3.62311985E-01 -1.19332420E-01 -1.60854152E-01  1.14345644E+00
  1.00000000E+00  1.00000000E+00  3.34946043E-02  2.34726953E-01  8.13757326E-01
  1.00000000E+00  3.34946043E-02  2.34726953E-01  8.13757326E-01  1.00000000E+00
  3.34946043E-02  2.34726953E-01  8.13757326E-01  1.00000000E+00  1.83473713E-03
  1.40373228E-02  6.88426223E-02  2.32184443E-01  4.67941348E-01  3.62311985E-01
 -1.19332420E-01 -1.60854152E-01  1.14345644E+00  1.00000000E+00  1.00000000E+00
  1.83473713E-03  1.40373228E-02  6.88426223E-02  2.32184443E-01  4.67941348E-01
  3.62311985E-01 -1.19332420E-01 -1.60854152E-01  1.14345644E+00  1.00000000E+00
  1.00000000E+00  3.34946043E-02  2.34726953E-01  8.13757326E-01  1.00000000E+00
  1.83473713E-03  1.40373228E-02  6.88426223E-02  2.32184443E-01  4.67941348E-01
  3.62311985E-01 -1.19332420E-01 -1.60854152E-01  1.14345644E+00  1.00000000E+00
  1.00000000E+00  3.34946043E-02  2.34726953E-01  8.13757326E-01  1.00000000E+00
  1.83473713E-03  1.40373228E-02  6.88426223E-02  2.32184443E-01  4.67941348E-01
  3.62311985E-01 -1.19332420E-01 -1.60854152E-01  1.14345644E+00  1.00000000E+00
  1.00000000E+00  3.34946043E-02  2.34726953E-01  8.13757326E-01  1.00000000E+00
  3.34946043E-02  2.34726953E-01  8.13757326E-01  1.00000000E+00  3.34946043E-02
  2.34726953E-01  8.13757326E-01  1.00000000E+00  1.83473713E-03  1.40373228E-02
  6.88426223E-02  2.32184443E-01  4.67941348E-01  3.62311985E-01 -1.19332420E-01
 -1.60854152E-01  1.14345644E+00  1.00000000E+00  1.00000000E+00  3.34946043E-02
  2.34726953E-01  8.13757326E-01  1.00000000E+00  3.34946043E-02  2.34726953E-01
  8.13757326E-01  1.00000000E+00  1.83473713E-03  1.40373228E-02  6.88426223E-02
  2.32184443E-01  4.67941348E-01  3.62311985E-01 -1.19332420E-01 -1.60854152E-01
  1.14345644E+00  1.00000000E+00  1.00000000E+00  3.34946043E-02  2.34726953E-01
  8.13757326E-01  1.00000000E+00
P(S=P) Contraction coefficients            R   N=         147
  0.00000000E+00  0.00000000E+00  0.00000000E+00  0.00000000E+00  0.00000000E+00
  0.00000000E+00  0.00000000E+00  0.00000000E+00  0.00000000E+00  0.00000000E+00
  6.89990666E-02  3.16423961E-01  7.44308291E-01  1.00000000E+00  0.00000000E+00
  0.00000000E+00  0.00000000E+00  0.00000000E+00  0.00000000E+00  0.00000000E+00
  0.00000000E+00  6.89990666E-02  3.16423961E-01  7.44308291E-01  1.00000000E+00
  0.00000000E+00  0.00000000E+00  0.00000000E+00  0.00000000E+00  0.00000000E+00
  0.00000000E+00  0.00000000E+00  6.89990666E-02  3.16423961E-01  7.44308291E-01
  1.00000000E+00  0.00000000E+00  0.00000000E+00  0.00000000E+00  0.00000000E+00
  0.00000000E+00  0.00000000E+00  0.00000000E+00  0.00000000E+00  0.00000000E+00
  0.00000000E+00  0.00000000E+00  0.00000000E+00  0.00000000E+00  0.00000000E+00
  0.00000000E+00  0.00000000E+00  0.00000000E+00  0.00000000E+00  0.00000000E+00
  6.89990666E-02  3.16423961E-01  7.44308291E-01  1.00000000E+00  0.00000000E+00
  0.00000000E+00  0.00000000E+00  0.00000000E+00  0.00000000E+00  0.00000000E+00
  0.00000000E+00  6.89990666E-02  3.16423961E-01  7.44308291E-01  1.00000000E+00
  0.00000000E+00  0.00000000E+00  0.00000000E+00  0.00000000E+00  0.00000000E+00
  0.00000000E+00  0.00000000E+00  0.00000000E+00  0.00000000E+00  0.00000000E+00
  0.00000000E+00  6.89990666E-02  3.16423961E-01  7.44308291E-01  1.00000000E+00
  0.00000000E+00  0.00000000E+00  0.00000000E+00  0.00000000E+00  0.00000000E+00
  0.00000000E+00  0.00000000E+00  0.00000000E+00  0.00000000E+00  0.00000000E+00
  0.00000000E+00  6.89990666E-02  3.16423961E-01  7.44308291E-01  1.00000000E+00
  0.00000000E+00  0.00000000E+00  0.00000000E+00  0.00000000E+00  0.00000000E+00
  0.00000000E+00  0.00000000E+00  0.00000000E+00  0.00000000E+00  0.00000000E+00
  0.00000000E+00  0.00000000E+00  0.00000000E+00  0.00000000E+00  0.00000000E+00
  0.00000000E+00  0.00000000E+00  0.00000000E+00  0.00000000E+00  6.89990666E-02
  3.16423961E-01  7.44308291E-01  1.00000000E+00  0.00000000E+00  0.00000000E+00
  0.00000000E+00  0.00000000E+00  0.00000000E+00  0.00000000E+00  0.00000000E+00
  0.00000000E+00  0.00000000E+00  0.00000000E+00  0.00000000E+00  0.00000000E+00
  0.00000000E+00  0.00000000E+00  0.00000000E+00  6.89990666E-02  3.16423961E-01
  7.44308291E-01  1.00000000E+00  0.00000000E+00  0.00000000E+00  0.00000000E+00
  0.00000000E+00  0.00000000E+00
Coordinates of each shell                  R   N=         180
  0.00000000E+00  0.00000000E+00  0.00000000E+00  0.00000000E+00  0.00000000E+00
  0.00000000E+00  0.00000000E+00  0.00000000E+00  2.05511873E+00  0.00000000E+00
  0.00000000E+00  2.05511873E+00  0.00000000E+00  0.00000000E+00  2.05511873E+00
  0.00000000E+00  0.00000000E+00  2.05511873E+00  2.28986807E+00  0.00000000E+00
  8.18882580E+00  2.28986807E+00  0.00000000E+00  8.18882580E+00  2.28986807E+00
  0.00000000E+00  8.18882580E+00  2.28986807E+00  0.00000000E+00  8.18882580E+00
 -1.23185577E-01  2.57667181E+00  3.27307557E+00 -1.23185577E-01  2.57667181E+00
  3.27307557E+00 -1.23185577E-01  2.57667181E+00  3.27307557E+00 -1.23185577E-01
  2.57667181E+00  3.27307557E+00  3.76933088E+00  1.84871340E+00  1.97468254E+00
  3.76933088E+00  1.84871340E+00  1.97468254E+00 -1.14912167E+00  2.78193575E+00
  5.03923817E+00 -1.14912167E+00  2.78193575E+00  5.03923817E+00 -2.83249159E-01
  4.21540262E+00  2.04441911E+00 -2.83249159E-01  4.21540262E+00  2.04441911E+00
  2.34803006E+00  1.15161800E+00  3.28520950E+00  2.34803006E+00  1.15161800E+00
  3.28520950E+00  2.34803006E+00  1.15161800E+00  3.28520950E+00  2.34803006E+00
  1.15161800E+00  3.28520950E+00  3.48366098E+00 -6.10154771E-02  5.59865757E+00
  3.48366098E+00 -6.10154771E-02  5.59865757E+00  3.48366098E+00 -6.10154771E-02
  5.59865757E+00  3.48366098E+00 -6.10154771E-02  5.59865757E+00  1.40387754E-02
 -5.63266131E+00  5.48404379E+00  1.40387754E-02 -5.63266131E+00  5.48404379E+00
 -2.60271979E-02 -3.57802823E+00  5.50378954E+00 -2.60271979E-02 -3.57802823E+00
  5.50378954E+00 -2.60271979E-02 -3.57802823E+00  5.50378954E+00 -2.60271979E-02
 -3.57802823E+00  5.50378954E+00  3.53290157E+00  1.40497358E-01  9.81848593E+00
  3.53290157E+00  1.40497358E-01  9.81848593E+00 -2.62703679E+00 -2.41155321E+00
  5.61295146E+00 -2.62703679E+00 -2.41155321E+00  5.61295146E+00 -2.62703679E+00
 -2.41155321E+00  5.61295146E+00 -2.62703679E+00 -2.41155321E+00  5.61295146E+00
 -1.83582358E+00 -3.65736838E+00  1.71559920E+00 -1.83582358E+00 -3.65736838E+00
  1.71559920E+00 -2.87673008E+00 -6.59843230E-01  6.65370679E+00 -2.87673008E+00
 -6.59843230E-01  6.65370679E+00 -4.24299073E+00 -3.67327988E+00  5.74483923E+00
 -4.24299073E+00 -3.67327988E+00  5.74483923E+00 -1.17836140E+00 -2.34755952E+00
  3.15631128E+00 -1.17836140E+00 -2.34755952E+00  3.15631128E+00 -1.17836140E+00
 -2.34755952E+00  3.15631128E+00 -1.17836140E+00 -2.34755952E+00  3.15631128E+00
  5.53858129E+00 -4.05043898E-02  5.57891183E+00  5.53858129E+00 -4.05043898E-02
  5.57891183E+00  5.15840430E-01  1.00408141E+00  8.43101122E+00  5.15840430E-01
  1.00408141E+00  8.43101122E+00  2.28796512E+00 -2.44310218E+00  6.71604696E+00
  2.28796512E+00 -2.44310218E+00  6.71604696E+00  2.28796512E+00 -2.44310218E+00
  6.71604696E+00  2.28796512E+00 -2.44310218E+00  6.71604696E+00  3.61911277E+00
 -3.86451071E+00  7.37267577E+00  3.61911277E+00 -3.86451071E+00  7.37267577E+00
Num ILSW                                   I              100
ILSW                                       I   N=         100
           0           1           0           0           0           0
           0           0           0           0           0          -1
           5           0           0           0           0           0
           0           0           0           0           0           0
           0           1           0           0           0           0
           0           0      100000           0          -1           0
           0           0           0           0           0           0
           0           0           0           1           0           0
           0 -2000000000           1           0           0           0
           0           0           4          52           0           0
           0           0           0           0           0           0
           0           0           0          21           0           1
           0           0           0           0           0           0
           0           0           0           0           0           0
           0           0           0           0           0           0
           0           0           0           0           0           0
           0           0           0           0
Num RLSW                                   I               52
RLSW                                       R   N=          52
  1.00000000E+00  1.00000000E+00  1.00000000E+00  1.00000000E+00  1.00000000E+00
  0.00000000E+00  0.00000000E+00  1.00000000E+00  0.00000000E+00  0.00000000E+00
  0.00000000E+00  0.00000000E+00  1.00000000E+00  0.00000000E+00  0.00000000E+00
  0.00000000E+00  0.00000000E+00  1.00000000E+00  0.00000000E+00  0.00000000E+00
  0.00000000E+00  0.00000000E+00  1.00000000E+00  0.00000000E+00  0.00000000E+00
  0.00000000E+00  0.00000000E+00  1.00000000E+00  0.00000000E+00  0.00000000E+00
  0.00000000E+00  0.00000000E+00  1.00000000E+00  0.00000000E+00  0.00000000E+00
  0.00000000E+00  0.00000000E+00  0.00000000E+00  1.00000000E+00  1.00000000E+00
  0.00000000E+00  1.00000000E+00  0.00000000E+00  0.00000000E+00  0.00000000E+00
  0.00000000E+00  0.00000000E+00  0.00000000E+00  0.00000000E+00  0.00000000E+00
  0.00000000E+00  0.00000000E+00
MxBond                                     I                4
NBond                                      I   N=          21
           1           4           4           4           1           1
           1           4           4           1           4           1
           4           1           1           1           4           1
           1           4           1
IBond                                      I   N=          84
           2           0           0           0           1           4
           8          17           9          12          19          20
           2           6           7           8           8           0
           0           0           4           0           0           0
           4           0           0           0           2           4
           5           9           3           8          18          20
          11           0           0           0          10          13
          17          20           3           0           0           0
          11          15          16          17          17           0
           0           0          13           0           0           0
          13           0           0           0           2          11
          13          14           9           0           0           0
           3           0           0           0           3           9
          11          21          20           0           0           0
RBond                                      R   N=          84
  1.00000000E+00  0.00000000E+00  0.00000000E+00  0.00000000E+00  1.00000000E+00
  1.00000000E+00  1.00000000E+00  1.00000000E+00  1.00000000E+00  1.00000000E+00
  1.00000000E+00  1.00000000E+00  1.00000000E+00  1.00000000E+00  1.00000000E+00
  1.00000000E+00  1.00000000E+00  0.00000000E+00  0.00000000E+00  0.00000000E+00
  1.00000000E+00  0.00000000E+00  0.00000000E+00  0.00000000E+00  1.00000000E+00
  0.00000000E+00  0.00000000E+00  0.00000000E+00  1.00000000E+00  1.00000000E+00
  1.00000000E+00  1.00000000E+00  1.00000000E+00  1.00000000E+00  1.00000000E+00
  1.00000000E+00  1.00000000E+00  0.00000000E+00  0.00000000E+00  0.00000000E+00
  1.00000000E+00  1.00000000E+00  1.00000000E+00  1.00000000E+00  1.00000000E+00
  0.00000000E+00  0.00000000E+00  0.00000000E+00  1.00000000E+00  1.00000000E+00
  1.00000000E+00  1.00000000E+00  1.00000000E+00  0.00000000E+00  0.00000000E+00
  0.00000000E+00  1.00000000E+00  0.00000000E+00  0.00000000E+00  0.00000000E+00
  1.00000000E+00  0.00000000E+00  0.00000000E+00  0.00000000E+00  1.00000000E+00
  1.00000000E+00  1.00000000E+00  1.00000000E+00  1.00000000E+00  0.00000000E+00
  0.00000000E+00  0.00000000E+00  1.00000000E+00  0.00000000E+00  0.00000000E+00
  0.00000000E+00  1.00000000E+00  1.00000000E+00  1.00000000E+00  1.00000000E+00
  1.00000000E+00  0.00000000E+00  0.00000000E+00  0.00000000E+00
Virial Ratio                               R      0.000000000000000E+00
Job Status                                 I               -1
Nuclear derivative order                   I                0
External E-field                           R   N=          35
  0.00000000E+00  0.00000000E+00  0.00000000E+00  0.00000000E+00  0.00000000E+00
  0.00000000E+00  0.00000000E+00  0.00000000E+00  0.00000000E+00  0.00000000E+00
  0.00000000E+00  0.00000000E+00  0.00000000E+00  0.00000000E+00  0.00000000E+00
  0.00000000E+00  0.00000000E+00  0.00000000E+00  0.00000000E+00  0.00000000E+00
  0.00000000E+00  0.00000000E+00  0.00000000E+00  0.00000000E+00  0.00000000E+00
  0.00000000E+00  0.00000000E+00  0.00000000E+00  0.00000000E+00  0.00000000E+00
  0.00000000E+00  0.00000000E+00  0.00000000E+00  0.00000000E+00  0.00000000E+00
IOpCl                                      I                0
IROHF                                      I                0
Alpha Orbital Energies                     R   N=         159
 -1.10777514E+01 -1.10777513E+01 -1.10777512E+01 -1.10777512E+01 -1.10777511E+01
 -1.10777510E+01 -1.10742968E+01 -1.10742966E+01 -1.10742966E+01 -8.10189514E-01
 -8.10189038E-01 -8.10188200E-01 -6.91346289E-01 -6.91346172E-01 -6.91346083E-01
 -6.91346053E-01 -6.91345519E-01 -6.91345387E-01 -6.83280571E-01 -6.83280429E-01
 -6.83280333E-01 -6.78600049E-01 -6.78600023E-01 -6.78599584E-01 -6.69813286E-01
 -6.69813173E-01 -6.69812980E-01 -6.69812935E-01 -6.69812396E-01 -6.69812387E-01
 -6.69308208E-01 -6.69307918E-01 -6.69307188E-01  5.92059938E-01  5.92060864E-01
  5.92061183E-01  6.08472071E-01  6.08472208E-01  6.08472723E-01  6.08472759E-01
  6.08472840E-01  6.08473040E-01  7.16883200E-01  7.16884468E-01  7.16885222E-01
  7.54990714E-01  7.54991081E-01  7.54991334E-01  7.57633246E-01  7.57635240E-01
  7.57635250E-01  7.64583309E-01  7.64583587E-01  7.64584865E-01  7.64584930E-01
  7.64585991E-01  7.64586316E-01  7.72577913E-01  7.72578000E-01  7.72578362E-01
  7.72578444E-01  7.72579197E-01  7.72579198E-01  7.87002976E-01  7.87003073E-01
  7.87003749E-01  8.47703468E-01  8.47703589E-01  8.47703785E-01  9.00331628E-01
  9.00331866E-01  9.00331902E-01  1.17786624E+00  1.17786633E+00  1.17786661E+00
  1.17786711E+00  1.17786751E+00  1.17786767E+00  1.20297532E+00  1.20297562E+00
  1.20297571E+00  1.20297598E+00  1.20297601E+00  1.20297631E+00  1.21199736E+00
  1.21199875E+00  1.21199877E+00  1.27761150E+00  1.27761157E+00  1.27761247E+00
  1.37168366E+00  1.37168398E+00  1.37168481E+00  1.37299082E+00  1.37299158E+00
  1.37299245E+00  1.37299254E+00  1.37299259E+00  1.37299278E+00  1.42258715E+00
  1.42258716E+00  1.42258733E+00  1.42258734E+00  1.42258789E+00  1.42258825E+00
  2.21944961E+00  2.21944964E+00  2.21945047E+00  2.21945072E+00  2.21945073E+00
  2.21945111E+00  2.22923042E+00  2.22923081E+00  2.22923082E+00  2.27956215E+00
  2.27956239E+00  2.27956250E+00  2.32398258E+00  2.33485220E+00  2.37928929E+00
  2.48227044E+00  2.48588566E+00  2.48795991E+00  2.49050854E+00  2.49069285E+00
  2.49119650E+00  1.00000000E+03  1.00000000E+03  1.00000000E+03  1.00000000E+03
  1.00000000E+03  1.00000000E+03  1.00000000E+03  1.00000000E+03  1.00000000E+03
  1.00000000E+03  1.00000000E+03  1.00000000E+03  1.00000000E+03  1.00000000E+03
  1.00000000E+03  1.00000000E+03  1.00000000E+03  1.00000000E+03  1.00000000E+03
  1.00000000E+03  1.00000000E+03  1.00000000E+03  1.00000000E+03  1.00000000E+03
  1.00000000E+03  1.00000000E+03  1.00000000E+03  1.00000000E+03  1.00000000E+03
  1.00000000E+03  1.00000000E+03  1.00000000E+03  1.00000000E+03
Alpha MO coefficients                      R   N=       25281
 -1.60315894E-02 -3.80285952E-03  1.01130783E+00 -1.43238494E-02  5.85825395E-04
  1.14318148E-03  6.17718517E-04 -5.82740628E-02 -1.49109493E-03 -1.96405380E-03