title                                                                   
Guess=OnlyRHF                                                         6-31G(d)            
Number of atoms                            I               21
Info1-9                                    I   N=           9
          31           6           0           0           0         100
           3           1           2
Full Title                                 C   N=           1
title       
Route                                      C   N=           8
#p RHF/6-31g(d) nosymm int=nobasistransform guess(read,only)
 geom=allcheck pop=SaveNLMOs        
Charge                                     I                0
Multiplicity                               I                1
Number of electrons                        I               66
Number of alpha electrons                  I               33
Number of beta electrons                   I               33
Number of basis functions                  I              159
Number of independent functions            I              159
Number of point charges in /Mol/           I                0
Number of translation vectors              I                0
Atomic numbers                             I   N=          21
           1           6           6           6           1           1
           1           6           6           1           6           1
           6           1           1           1           6           1
           1           6           1
Nuclear charges                            R   N=          21
  1.00000000E+00  6.00000000E+00  6.00000000E+00  6.00000000E+00  1.00000000E+00
  1.00000000E+00  1.00000000E+00  6.00000000E+00  6.00000000E+00  1.00000000E+00
  6.00000000E+00  1.00000000E+00  6.00000000E+00  1.00000000E+00  1.00000000E+00
  1.00000000E+00  6.00000000E+00  1.00000000E+00  1.00000000E+00  6.00000000E+00
  1.00000000E+00
Current cartesian coordinates              R   N=          63
  3.92485534E+00 -2.15027211E+00  2.23287960E+00  2.80908166E+00 -6.81561852E-01
  1.33638408E+00 -3.51239615E+00  1.29580788E+00  0.00000000E+00  1.75619808E+00
  1.29580788E+00  3.04182411E+00 -2.86973809E-02 -2.15027211E+00  4.51546467E+00
  1.24371191E+00  3.08378170E+00  2.15417251E+00  2.77458282E+00  1.62064613E+00
  4.80571904E+00 -2.47198854E-01 -6.81561852E-01  3.10092908E+00 -2.56188281E+00
 -6.81561852E-01  1.76454311E+00 -2.86973809E-02 -2.15027211E+00 -4.51546467E+00
 -2.47198854E-01 -6.81561852E-01 -3.10092908E+00 -5.54916565E+00  1.62064613E+00
  0.00000000E+00  1.75619808E+00  1.29580788E+00 -3.04182411E+00  3.92485534E+00
 -2.15027211E+00 -2.23287960E+00  1.24371191E+00  3.08378170E+00 -2.15417251E+00
  2.77458282E+00  1.62064613E+00 -4.80571904E+00  2.80908166E+00 -6.81561852E-01
 -1.33638408E+00 -3.89615796E+00 -2.15027211E+00  2.28258507E+00 -2.48742382E+00
  3.08378170E+00  0.00000000E+00 -2.56188281E+00 -6.81561852E-01 -1.76454311E+00
 -3.89615796E+00 -2.15027211E+00 -2.28258507E+00
Number of symbols in /Mol/                 I                0
Int Atom Types                             I   N=          21
           0           0           0           0           0           0
           0           0           0           0           0           0
           0           0           0           0           0           0
           0           0           0
Force Field                                I                0
Atom Types                                 C   N=          21
                                                            
                                                            
                                                            
                                                            
            
MM charges                                 R   N=          21
  0.00000000E+00  0.00000000E+00  0.00000000E+00  0.00000000E+00  0.00000000E+00
  0.00000000E+00  0.00000000E+00  0.00000000E+00  0.00000000E+00  0.00000000E+00
  0.00000000E+00  0.00000000E+00  0.00000000E+00  0.00000000E+00  0.00000000E+00
  0.00000000E+00  0.00000000E+00  0.00000000E+00  0.00000000E+00  0.00000000E+00
  0.00000000E+00
Integer atomic weights                     I   N=          21
           1          12          12          12           1           1
           1          12          12           1          12           1
          12           1           1           1          12           1
           1          12           1
Real atomic weights                        R   N=          21
  1.00782504E+00  1.20000000E+01  1.20000000E+01  1.20000000E+01  1.00782504E+00
  1.00782504E+00  1.00782504E+00  1.20000000E+01  1.20000000E+01  1.00782504E+00
  1.20000000E+01  1.00782504E+00  1.20000000E+01  1.00782504E+00  1.00782504E+00
  1.00782504E+00  1.20000000E+01  1.00782504E+00  1.00782504E+00  1.20000000E+01
  1.00782504E+00
Atom fragment info                         I   N=          21
           0           0           0           0           0           0
           0           0           0           0           0           0
           0           0           0           0           0           0
           0           0           0
Atom residue num                           I   N=          21
           0           0           0           0           0           0
           0           0           0           0           0           0
           0           0           0           0           0           0
           0           0           0
Nuclear spins                              I   N=          21
           1           0           0           0           1           1
           1           0           0           1           0           1
           0           1           1           1           0           1
           1           0           1
Nuclear ZEff                               R   N=          21
 -1.00000000E+00 -3.60000000E+00 -3.60000000E+00 -3.60000000E+00 -1.00000000E+00
 -1.00000000E+00 -1.00000000E+00 -3.60000000E+00 -3.60000000E+00 -1.00000000E+00
 -3.60000000E+00 -1.00000000E+00 -3.60000000E+00 -1.00000000E+00 -1.00000000E+00
 -1.00000000E+00 -3.60000000E+00 -1.00000000E+00 -1.00000000E+00 -3.60000000E+00
 -1.00000000E+00
Nuclear ZNuc                               R   N=          21
  1.00000000E+00  6.00000000E+00  6.00000000E+00  6.00000000E+00  1.00000000E+00
  1.00000000E+00  1.00000000E+00  6.00000000E+00  6.00000000E+00  1.00000000E+00
  6.00000000E+00  1.00000000E+00  6.00000000E+00  1.00000000E+00  1.00000000E+00
  1.00000000E+00  6.00000000E+00  1.00000000E+00  1.00000000E+00  6.00000000E+00
  1.00000000E+00
Nuclear QMom                               R   N=          21
  0.00000000E+00  0.00000000E+00  0.00000000E+00  0.00000000E+00  0.00000000E+00
  0.00000000E+00  0.00000000E+00  0.00000000E+00  0.00000000E+00  0.00000000E+00
  0.00000000E+00  0.00000000E+00  0.00000000E+00  0.00000000E+00  0.00000000E+00
  0.00000000E+00  0.00000000E+00  0.00000000E+00  0.00000000E+00  0.00000000E+00
  0.00000000E+00
Nuclear GFac                               R   N=          21
  2.79284600E+00  0.00000000E+00  0.00000000E+00  0.00000000E+00  2.79284600E+00
  2.79284600E+00  2.79284600E+00  0.00000000E+00  0.00000000E+00  2.79284600E+00
  0.00000000E+00  2.79284600E+00  0.00000000E+00  2.79284600E+00  2.79284600E+00
  2.79284600E+00  0.00000000E+00  2.79284600E+00  2.79284600E+00  0.00000000E+00
  2.79284600E+00
MicOpt                                     I   N=          21
          -1          -1          -1          -1          -1          -1
          -1          -1          -1          -1          -1          -1
          -1          -1          -1          -1          -1          -1
          -1          -1          -1
Number of residues                         I                0
Number of secondary structures             I                0
Number of contracted shells                I               60
Number of primitive shells                 I              147
Pure/Cartesian d shells                    I                1
Pure/Cartesian f shells                    I                0
Highest angular momentum                   I                2
Largest degree of contraction              I                6
Shell types                                I   N=          60
           0           0           0          -1          -1           2
           0          -1          -1           2           0          -1
          -1           2           0           0           0           0
           0           0           0          -1          -1           2
           0          -1          -1           2           0           0
           0          -1          -1           2           0           0
           0          -1          -1           2           0           0
           0           0           0           0           0          -1
          -1           2           0           0           0           0
           0          -1          -1           2           0           0
Number of primitives per shell             I   N=          60
           3           1           6           3           1           1
           6           3           1           1           6           3
           1           1           3           1           3           1
           3           1           6           3           1           1
           6           3           1           1           3           1
           6           3           1           1           3           1
           6           3           1           1           3           1
           3           1           3           1           6           3
           1           1           3           1           3           1
           6           3           1           1           3           1
Shell to atom map                          I   N=          60
           1           1           2           2           2           2
           3           3           3           3           4           4
           4           4           5           5           6           6
           7           7           8           8           8           8
           9           9           9           9          10          10
          11          11          11          11          12          12
          13          13          13          13          14          14
          15          15          16          16          17          17
          17          17          18          18          19          19
          20          20          20          20          21          21
Primitive exponents                        R   N=         147
  1.87311370E+01  2.82539436E+00  6.40121692E-01  1.61277759E-01  3.04752488E+03
  4.57369518E+02  1.03948685E+02  2.92101553E+01  9.28666296E+00  3.16392696E+00
  7.86827235E+00  1.88128854E+00  5.44249258E-01  1.68714478E-01  8.00000000E-01
  3.04752488E+03  4.57369518E+02  1.03948685E+02  2.92101553E+01  9.28666296E+00
  3.16392696E+00  7.86827235E+00  1.88128854E+00  5.44249258E-01  1.68714478E-01
  8.00000000E-01  3.04752488E+03  4.57369518E+02  1.03948685E+02  2.92101553E+01
  9.28666296E+00  3.16392696E+00  7.86827235E+00  1.88128854E+00  5.44249258E-01
  1.68714478E-01  8.00000000E-01  1.87311370E+01  2.82539436E+00  6.40121692E-01
  1.61277759E-01  1.87311370E+01  2.82539436E+00  6.40121692E-01  1.61277759E-01
  1.87311370E+01  2.82539436E+00  6.40121692E-01  1.61277759E-01  3.04752488E+03
  4.57369518E+02  1.03948685E+02  2.92101553E+01  9.28666296E+00  3.16392696E+00
  7.86827235E+00  1.88128854E+00  5.44249258E-01  1.68714478E-01  8.00000000E-01
  3.04752488E+03  4.57369518E+02  1.03948685E+02  2.92101553E+01  9.28666296E+00
  3.16392696E+00  7.86827235E+00  1.88128854E+00  5.44249258E-01  1.68714478E-01
  8.00000000E-01  1.87311370E+01  2.82539436E+00  6.40121692E-01  1.61277759E-01
  3.04752488E+03  4.57369518E+02  1.03948685E+02  2.92101553E+01  9.28666296E+00
  3.16392696E+00  7.86827235E+00  1.88128854E+00  5.44249258E-01  1.68714478E-01
  8.00000000E-01  1.87311370E+01  2.82539436E+00  6.40121692E-01  1.61277759E-01
  3.04752488E+03  4.57369518E+02  1.03948685E+02  2.92101553E+01  9.28666296E+00
  3.16392696E+00  7.86827235E+00  1.88128854E+00  5.44249258E-01  1.68714478E-01
  8.00000000E-01  1.87311370E+01  2.82539436E+00  6.40121692E-01  1.61277759E-01
  1.87311370E+01  2.82539436E+00  6.40121692E-01  1.61277759E-01  1.87311370E+01
  2.82539436E+00  6.40121692E-01  1.61277759E-01  3.04752488E+03  4.57369518E+02
  1.03948685E+02  2.92101553E+01  9.28666296E+00  3.16392696E+00  7.86827235E+00
  1.88128854E+00  5.44249258E-01  1.68714478E-01  8.00000000E-01  1.87311370E+01
  2.82539436E+00  6.40121692E-01  1.61277759E-01  1.87311370E+01  2.82539436E+00
  6.40121692E-01  1.61277759E-01  3.04752488E+03  4.57369518E+02  1.03948685E+02
  2.92101553E+01  9.28666296E+00  3.16392696E+00  7.86827235E+00  1.88128854E+00
  5.44249258E-01  1.68714478E-01  8.00000000E-01  1.87311370E+01  2.82539436E+00
  6.40121692E-01  1.61277759E-01
Contraction coefficients                   R   N=         147
  3.34946043E-02  2.34726953E-01  8.13757326E-01  1.00000000E+00  1.83473713E-03
  1.40373228E-02  6.88426223E-02  2.32184443E-01  4.67941348E-01  3.62311985E-01
 -1.19332420E-01 -1.60854152E-01  1.14345644E+00  1.00000000E+00  1.00000000E+00
  1.83473713E-03  1.40373228E-02  6.88426223E-02  2.32184443E-01  4.67941348E-01
  3.62311985E-01 -1.19332420E-01 -1.60854152E-01  1.14345644E+00  1.00000000E+00
  1.00000000E+00  1.83473713E-03  1.40373228E-02  6.88426223E-02  2.32184443E-01
  4.67941348E-01  3.62311985E-01 -1.19332420E-01 -1.60854152E-01  1.14345644E+00
  1.00000000E+00  1.00000000E+00  3.34946043E-02  2.34726953E-01  8.13757326E-01
  1.00000000E+00  3.34946043E-02  2.34726953E-01  8.13757326E-01  1.00000000E+00
  3.34946043E-02  2.34726953E-01  8.13757326E-01  1.00000000E+00  1.83473713E-03
  1.40373228E-02  6.88426223E-02  2.32184443E-01  4.67941348E-01  3.62311985E-01
 -1.19332420E-01 -1.60854152E-01  1.14345644E+00  1.00000000E+00  1.00000000E+00
  1.83473713E-03  1.40373228E-02  6.88426223E-02  2.32184443E-01  4.67941348E-01
  3.62311985E-01 -1.19332420E-01 -1.60854152E-01  1.14345644E+00  1.00000000E+00
  1.00000000E+00  3.34946043E-02  2.34726953E-01  8.13757326E-01  1.00000000E+00
  1.83473713E-03  1.40373228E-02  6.88426223E-02  2.32184443E-01  4.67941348E-01
  3.62311985E-01 -1.19332420E-01 -1.60854152E-01  1.14345644E+00  1.00000000E+00
  1.00000000E+00  3.34946043E-02  2.34726953E-01  8.13757326E-01  1.00000000E+00
  1.83473713E-03  1.40373228E-02  6.88426223E-02  2.32184443E-01  4.67941348E-01
  3.62311985E-01 -1.19332420E-01 -1.60854152E-01  1.14345644E+00  1.00000000E+00
  1.00000000E+00  3.34946043E-02  2.34726953E-01  8.13757326E-01  1.00000000E+00
  3.34946043E-02  2.34726953E-01  8.13757326E-01  1.00000000E+00  3.34946043E-02
  2.34726953E-01  8.13757326E-01  1.00000000E+00  1.83473713E-03  1.40373228E-02
  6.88426223E-02  2.32184443E-01  4.67941348E-01  3.62311985E-01 -1.19332420E-01
 -1.60854152E-01  1.14345644E+00  1.00000000E+00  1.00000000E+00  3.34946043E-02
  2.34726953E-01  8.13757326E-01  1.00000000E+00  3.34946043E-02  2.34726953E-01
  8.13757326E-01  1.00000000E+00  1.83473713E-03  1.40373228E-02  6.88426223E-02
  2.32184443E-01  4.67941348E-01  3.62311985E-01 -1.19332420E-01 -1.60854152E-01
  1.14345644E+00  1.00000000E+00  1.00000000E+00  3.34946043E-02  2.34726953E-01
  8.13757326E-01  1.00000000E+00
P(S=P) Contraction coefficients            R   N=         147
  0.00000000E+00  0.00000000E+00  0.00000000E+00  0.00000000E+00  0.00000000E+00
  0.00000000E+00  0.00000000E+00  0.00000000E+00  0.00000000E+00  0.00000000E+00
  6.89990666E-02  3.16423961E-01  7.44308291E-01  1.00000000E+00  0.00000000E+00
  0.00000000E+00  0.00000000E+00  0.00000000E+00  0.00000000E+00  0.00000000E+00
  0.00000000E+00  6.89990666E-02  3.16423961E-01  7.44308291E-01  1.00000000E+00
  0.00000000E+00  0.00000000E+00  0.00000000E+00  0.00000000E+00  0.00000000E+00
  0.00000000E+00  0.00000000E+00  6.89990666E-02  3.16423961E-01  7.44308291E-01
  1.00000000E+00  0.00000000E+00  0.00000000E+00  0.00000000E+00  0.00000000E+00
  0.00000000E+00  0.00000000E+00  0.00000000E+00  0.00000000E+00  0.00000000E+00
  0.00000000E+00  0.00000000E+00  0.00000000E+00  0.00000000E+00  0.00000000E+00
  0.00000000E+00  0.00000000E+00  0.00000000E+00  0.00000000E+00  0.00000000E+00
  6.89990666E-02  3.16423961E-01  7.44308291E-01  1.00000000E+00  0.00000000E+00
  0.00000000E+00  0.00000000E+00  0.00000000E+00  0.00000000E+00  0.00000000E+00
  0.00000000E+00  6.89990666E-02  3.16423961E-01  7.44308291E-01  1.00000000E+00
  0.00000000E+00  0.00000000E+00  0.00000000E+00  0.00000000E+00  0.00000000E+00
  0.00000000E+00  0.00000000E+00  0.00000000E+00  0.00000000E+00  0.00000000E+00
  0.00000000E+00  6.89990666E-02  3.16423961E-01  7.44308291E-01  1.00000000E+00
  0.00000000E+00  0.00000000E+00  0.00000000E+00  0.00000000E+00  0.00000000E+00
  0.00000000E+00  0.00000000E+00  0.00000000E+00  0.00000000E+00  0.00000000E+00
  0.00000000E+00  6.89990666E-02  3.16423961E-01  7.44308291E-01  1.00000000E+00
  0.00000000E+00  0.00000000E+00  0.00000000E+00  0.00000000E+00  0.00000000E+00
  0.00000000E+00  0.00000000E+00  0.00000000E+00  0.00000000E+00  0.00000000E+00
  0.00000000E+00  0.00000000E+00  0.00000000E+00  0.00000000E+00  0.00000000E+00
  0.00000000E+00  0.00000000E+00  0.00000000E+00  0.00000000E+00  6.89990666E-02
  3.16423961E-01  7.44308291E-01  1.00000000E+00  0.00000000E+00  0.00000000E+00
  0.00000000E+00  0.00000000E+00  0.00000000E+00  0.00000000E+00  0.00000000E+00
  0.00000000E+00  0.00000000E+00  0.00000000E+00  0.00000000E+00  0.00000000E+00
  0.00000000E+00  0.00000000E+00  0.00000000E+00  6.89990666E-02  3.16423961E-01
  7.44308291E-01  1.00000000E+00  0.00000000E+00  0.00000000E+00  0.00000000E+00
  0.00000000E+00  0.00000000E+00
Coordinates of each shell                  R   N=         180
  3.92485534E+00 -2.15027211E+00  2.23287960E+00  3.92485534E+00 -2.15027211E+00
  2.23287960E+00  2.80908166E+00 -6.81561852E-01  1.33638408E+00  2.80908166E+00
 -6.81561852E-01  1.33638408E+00  2.80908166E+00 -6.81561852E-01  1.33638408E+00
  2.80908166E+00 -6.81561852E-01  1.33638408E+00 -3.51239615E+00  1.29580788E+00
  0.00000000E+00 -3.51239615E+00  1.29580788E+00  0.00000000E+00 -3.51239615E+00
  1.29580788E+00  0.00000000E+00 -3.51239615E+00  1.29580788E+00  0.00000000E+00
  1.75619808E+00  1.29580788E+00  3.04182411E+00  1.75619808E+00  1.29580788E+00
  3.04182411E+00  1.75619808E+00  1.29580788E+00  3.04182411E+00  1.75619808E+00
  1.29580788E+00  3.04182411E+00 -2.86973809E-02 -2.15027211E+00  4.51546467E+00
 -2.86973809E-02 -2.15027211E+00  4.51546467E+00  1.24371191E+00  3.08378170E+00
  2.15417251E+00  1.24371191E+00  3.08378170E+00  2.15417251E+00  2.77458282E+00
  1.62064613E+00  4.80571904E+00  2.77458282E+00  1.62064613E+00  4.80571904E+00
 -2.47198854E-01 -6.81561852E-01  3.10092908E+00 -2.47198854E-01 -6.81561852E-01
  3.10092908E+00 -2.47198854E-01 -6.81561852E-01  3.10092908E+00 -2.47198854E-01
 -6.81561852E-01  3.10092908E+00 -2.56188281E+00 -6.81561852E-01  1.76454311E+00
 -2.56188281E+00 -6.81561852E-01  1.76454311E+00 -2.56188281E+00 -6.81561852E-01
  1.76454311E+00 -2.56188281E+00 -6.81561852E-01  1.76454311E+00 -2.86973809E-02
 -2.15027211E+00 -4.51546467E+00 -2.86973809E-02 -2.15027211E+00 -4.51546467E+00
 -2.47198854E-01 -6.81561852E-01 -3.10092908E+00 -2.47198854E-01 -6.81561852E-01
 -3.10092908E+00 -2.47198854E-01 -6.81561852E-01 -3.10092908E+00 -2.47198854E-01
 -6.81561852E-01 -3.10092908E+00 -5.54916565E+00  1.62064613E+00  0.00000000E+00
 -5.54916565E+00  1.62064613E+00  0.00000000E+00  1.75619808E+00  1.29580788E+00
 -3.04182411E+00  1.75619808E+00  1.29580788E+00 -3.04182411E+00  1.75619808E+00
  1.29580788E+00 -3.04182411E+00  1.75619808E+00  1.29580788E+00 -3.04182411E+00
  3.92485534E+00 -2.15027211E+00 -2.23287960E+00  3.92485534E+00 -2.15027211E+00
 -2.23287960E+00  1.24371191E+00  3.08378170E+00 -2.15417251E+00  1.24371191E+00
  3.08378170E+00 -2.15417251E+00  2.77458282E+00  1.62064613E+00 -4.80571904E+00
  2.77458282E+00  1.62064613E+00 -4.80571904E+00  2.80908166E+00 -6.81561852E-01
 -1.33638408E+00  2.80908166E+00 -6.81561852E-01 -1.33638408E+00  2.80908166E+00
 -6.81561852E-01 -1.33638408E+00  2.80908166E+00 -6.81561852E-01 -1.33638408E+00
 -3.89615796E+00 -2.15027211E+00  2.28258507E+00 -3.89615796E+00 -2.15027211E+00
  2.28258507E+00 -2.48742382E+00  3.08378170E+00  0.00000000E+00 -2.48742382E+00
  3.08378170E+00  0.00000000E+00 -2.56188281E+00 -6.81561852E-01 -1.76454311E+00
 -2.56188281E+00 -6.81561852E-01 -1.76454311E+00 -2.56188281E+00 -6.81561852E-01
 -1.76454311E+00 -2.56188281E+00 -6.81561852E-01 -1.76454311E+00 -3.89615796E+00
 -2.15027211E+00 -2.28258507E+00 -3.89615796E+00 -2.15027211E+00 -2.28258507E+00
Num ILSW                                   I              100
ILSW                                       I   N=         100
           0           1           0           0           0           0
           0           0           0           0           0          -1
           5           0           0           0           0           0
           0           0           0           0           0           0
           0           1           0           0           0           0
           0           0      100000           0          -1           0
           0           0           0           0           0           0
           0           0           0           1           0           0
           0 -2000000000           1           0           0           0
           0           0           4          52           0           0
           0           0           0           0           0           0
           0           0           0          21           0           1
           0           0           0           0           0           0
           0           0           0           0           0           0
           0           0           0           0           0           0
           0           0           0           0           0           0
           0           0           0           0
Num RLSW                                   I               52
RLSW                                       R   N=          52
  1.00000000E+00  1.00000000E+00  1.00000000E+00  1.00000000E+00  1.00000000E+00
  0.00000000E+00  0.00000000E+00  1.00000000E+00  0.00000000E+00  0.00000000E+00
  0.00000000E+00  0.00000000E+00  1.00000000E+00  0.00000000E+00  0.00000000E+00
  0.00000000E+00  0.00000000E+00  1.00000000E+00  0.00000000E+00  0.00000000E+00
  0.00000000E+00  0.00000000E+00  1.00000000E+00  0.00000000E+00  0.00000000E+00
  0.00000000E+00  0.00000000E+00  1.00000000E+00  0.00000000E+00  0.00000000E+00
  0.00000000E+00  0.00000000E+00  1.00000000E+00  0.00000000E+00  0.00000000E+00
  0.00000000E+00  0.00000000E+00  0.00000000E+00  1.00000000E+00  1.00000000E+00
  0.00000000E+00  1.00000000E+00  0.00000000E+00  0.00000000E+00  0.00000000E+00
  0.00000000E+00  0.00000000E+00  0.00000000E+00  0.00000000E+00  0.00000000E+00
  0.00000000E+00  0.00000000E+00
MxBond                                     I                4
NBond                                      I   N=          21
           1           3           4           4           1           1
           1           3           3           1           3           1
           4           1           1           1           3           1
           1           3           1
IBond                                      I   N=          84
           2           0           0           0           1           4
          17           0           9          12          19          20
           2           6           7           8           8           0
           0           0           4           0           0           0
           4           0           0           0           4           5
           9           0           3           8          18           0
          11           0           0           0          10          13
          20           0           3           0           0           0
          11          15          16          17          17           0
           0           0          13           0           0           0
          13           0           0           0           2          13
          14           0           9           0           0           0
           3           0           0           0           3          11
          21           0          20           0           0           0
RBond                                      R   N=          84
  1.00000000E+00  0.00000000E+00  0.00000000E+00  0.00000000E+00  1.00000000E+00
  1.00000000E+00  1.50000000E+00  0.00000000E+00  1.00000000E+00  1.00000000E+00
  1.00000000E+00  1.00000000E+00  1.00000000E+00  1.00000000E+00  1.00000000E+00
  1.00000000E+00  1.00000000E+00  0.00000000E+00  0.00000000E+00  0.00000000E+00
  1.00000000E+00  0.00000000E+00  0.00000000E+00  0.00000000E+00  1.00000000E+00
  0.00000000E+00  0.00000000E+00  0.00000000E+00  1.00000000E+00  1.00000000E+00
  1.50000000E+00  0.00000000E+00  1.00000000E+00  1.50000000E+00  1.00000000E+00
  0.00000000E+00  1.00000000E+00  0.00000000E+00  0.00000000E+00  0.00000000E+00
  1.00000000E+00  1.00000000E+00  1.50000000E+00  0.00000000E+00  1.00000000E+00
  0.00000000E+00  0.00000000E+00  0.00000000E+00  1.00000000E+00  1.00000000E+00
  1.00000000E+00  1.00000000E+00  1.00000000E+00  0.00000000E+00  0.00000000E+00
  0.00000000E+00  1.00000000E+00  0.00000000E+00  0.00000000E+00  0.00000000E+00
  1.00000000E+00  0.00000000E+00  0.00000000E+00  0.00000000E+00  1.50000000E+00
  1.00000000E+00  1.00000000E+00  0.00000000E+00  1.00000000E+00  0.00000000E+00
  0.00000000E+00  0.00000000E+00  1.00000000E+00  0.00000000E+00  0.00000000E+00
  0.00000000E+00  1.00000000E+00  1.50000000E+00  1.00000000E+00  0.00000000E+00
  1.00000000E+00  0.00000000E+00  0.00000000E+00  0.00000000E+00
Virial Ratio                               R      0.000000000000000E+00
Job Status                                 I               -1
Nuclear derivative order                   I                0
External E-field                           R   N=          35
  0.00000000E+00  0.00000000E+00  0.00000000E+00  0.00000000E+00  0.00000000E+00
  0.00000000E+00  0.00000000E+00  0.00000000E+00  0.00000000E+00  0.00000000E+00
  0.00000000E+00  0.00000000E+00  0.00000000E+00  0.00000000E+00  0.00000000E+00
  0.00000000E+00  0.00000000E+00  0.00000000E+00  0.00000000E+00  0.00000000E+00
  0.00000000E+00  0.00000000E+00  0.00000000E+00  0.00000000E+00  0.00000000E+00
  0.00000000E+00  0.00000000E+00  0.00000000E+00  0.00000000E+00  0.00000000E+00
  0.00000000E+00  0.00000000E+00  0.00000000E+00  0.00000000E+00  0.00000000E+00
IOpCl                                      I                0
IROHF                                      I                0
Alpha Orbital Energies                     R   N=         159
 -1.10827714E+01 -1.10827714E+01 -1.10827714E+01 -1.10827714E+01 -1.10827713E+01
 -1.10827713E+01 -1.10722520E+01 -1.10722520E+01 -1.10722519E+01 -9.00747065E-01
 -9.00747065E-01 -9.00746972E-01 -7.68997435E-01 -7.68997435E-01 -7.68997379E-01
 -7.68997379E-01 -7.68997136E-01 -7.68997136E-01 -6.79522788E-01 -6.79522788E-01
 -6.79522677E-01 -6.74836762E-01 -6.74836500E-01 -6.74836500E-01 -6.74570560E-01
 -6.74570560E-01 -6.74570339E-01 -6.74570339E-01 -6.74570106E-01 -6.74570105E-01
 -3.49248014E-01 -3.49247002E-01 -3.49247002E-01  2.53713690E-01  2.53713691E-01
  2.53714579E-01  6.71521911E-01  6.71521911E-01  6.71522361E-01  6.71522361E-01
  6.71522373E-01  6.71522373E-01  7.37025765E-01  7.37026054E-01  7.37026054E-01
  7.40416757E-01  7.40416757E-01  7.40417430E-01  7.70886345E-01  7.70886346E-01
  7.70887050E-01  7.70887050E-01  7.70887356E-01  7.70887356E-01  8.53159702E-01
  8.53159703E-01  8.53159726E-01  7.67224336E-01  7.67224336E-01  7.67224594E-01
  7.67224594E-01  7.67224983E-01  7.67224983E-01  7.92215312E-01  7.92215656E-01
  7.92215656E-01  8.37207119E-01  8.37207460E-01  8.37207460E-01  8.85470180E-01
  8.85470180E-01  8.85470482E-01  9.95739813E-01  9.95739813E-01  9.95739881E-01
  9.95739881E-01  9.95739932E-01  9.95739932E-01  1.28176239E+00  1.28176239E+00
  1.28176314E+00  1.28176314E+00  1.28176398E+00  1.28176398E+00  1.34736069E+00
  1.34736087E+00  1.34736087E+00  1.35284285E+00  1.35284285E+00  1.35284331E+00
  1.35284331E+00  1.35284375E+00  1.35284375E+00  1.45022920E+00  1.45023203E+00
  1.45023203E+00  1.65900918E+00  1.65900918E+00  1.65901154E+00  1.81823380E+00
  1.81823380E+00  1.81823550E+00  1.81823550E+00  1.81823566E+00  1.81823566E+00
  1.84397766E+00  1.93672718E+00  1.93672718E+00  1.93672757E+00  1.93672757E+00
  1.93672935E+00  1.93672935E+00  2.07801101E+00  2.07801101E+00  2.18725162E+00
  2.18725162E+00  2.18725210E+00  2.34090654E+00  2.34090654E+00  2.36672231E+00
  2.36672552E+00  2.36672552E+00  2.37862530E+00  2.37862530E+00  2.38786204E+00
  2.38786204E+00  1.00000000E+03  1.00000000E+03  1.00000000E+03  1.00000000E+03
  1.00000000E+03  1.00000000E+03  1.00000000E+03  1.00000000E+03  1.00000000E+03
  1.00000000E+03  1.00000000E+03  1.00000000E+03  1.00000000E+03  1.00000000E+03
  1.00000000E+03  1.00000000E+03  1.00000000E+03  1.00000000E+03  1.00000000E+03
  1.00000000E+03  1.00000000E+03  1.00000000E+03  1.00000000E+03  1.00000000E+03
  1.00000000E+03  1.00000000E+03  1.00000000E+03  1.00000000E+03  1.00000000E+03
  1.00000000E+03  1.00000000E+03  1.00000000E+03  1.00000000E+03
Alpha MO coefficients                      R   N=       25281
 -1.84157795E-04 -2.94620790E-04 -1.04067863E-04  6.51921231E-04 -6.79727872E-04
 -7.11641139E-06 -2.17577841E-04 -1.49318848E-03  2.40788778E-04 -3.46007327E-04