title                                                                   
SP        RHF                                                         6-31G(d)            
Number of atoms                            I               21
Info1-9                                    I   N=           9
          30          30           0           0           0         110
           1           1           2
Full Title                                 C   N=           1
title       
Route                                      C   N=           4
#p RHF/6-31g(d) nosymm int=nobasistransform     
Charge                                     I                0
Multiplicity                               I                1
Number of electrons                        I               66
Number of alpha electrons                  I               33
Number of beta electrons                   I               33
Number of basis functions                  I              159
Number of independent functions            I              159
Number of point charges in /Mol/           I                0
Number of translation vectors              I                0
Atomic numbers                             I   N=          21
           1           6           6           6           1           1
           1           6           6           1           6           1
           6           1           1           1           6           1
           1           6           1
Nuclear charges                            R   N=          21
  1.00000000E+00  6.00000000E+00  6.00000000E+00  6.00000000E+00  1.00000000E+00
  1.00000000E+00  1.00000000E+00  6.00000000E+00  6.00000000E+00  1.00000000E+00
  6.00000000E+00  1.00000000E+00  6.00000000E+00  1.00000000E+00  1.00000000E+00
  1.00000000E+00  6.00000000E+00  1.00000000E+00  1.00000000E+00  6.00000000E+00
  1.00000000E+00
Current cartesian coordinates              R   N=          63
  3.92485534E+00 -2.15027211E+00  2.23287960E+00  2.80908166E+00 -6.81561852E-01
  1.33638408E+00 -3.51239615E+00  1.29580788E+00  0.00000000E+00  1.75619808E+00
  1.29580788E+00  3.04182411E+00 -2.86973809E-02 -2.15027211E+00  4.51546467E+00
  1.24371191E+00  3.08378170E+00  2.15417251E+00  2.77458282E+00  1.62064613E+00
  4.80571904E+00 -2.47198854E-01 -6.81561852E-01  3.10092908E+00 -2.56188281E+00
 -6.81561852E-01  1.76454311E+00 -2.86973809E-02 -2.15027211E+00 -4.51546467E+00
 -2.47198854E-01 -6.81561852E-01 -3.10092908E+00 -5.54916565E+00  1.62064613E+00
  0.00000000E+00  1.75619808E+00  1.29580788E+00 -3.04182411E+00  3.92485534E+00
 -2.15027211E+00 -2.23287960E+00  1.24371191E+00  3.08378170E+00 -2.15417251E+00
  2.77458282E+00  1.62064613E+00 -4.80571904E+00  2.80908166E+00 -6.81561852E-01
 -1.33638408E+00 -3.89615796E+00 -2.15027211E+00  2.28258507E+00 -2.48742382E+00
  3.08378170E+00  0.00000000E+00 -2.56188281E+00 -6.81561852E-01 -1.76454311E+00
 -3.89615796E+00 -2.15027211E+00 -2.28258507E+00
Number of symbols in /Mol/                 I                0
Int Atom Types                             I   N=          21
           0           0           0           0           0           0
           0           0           0           0           0           0
           0           0           0           0           0           0
           0           0           0
Force Field                                I                0
Atom Types                                 C   N=          21
                                                            
                                                            
                                                            
                                                            
            
MM charges                                 R   N=          21
  0.00000000E+00  0.00000000E+00  0.00000000E+00  0.00000000E+00  0.00000000E+00
  0.00000000E+00  0.00000000E+00  0.00000000E+00  0.00000000E+00  0.00000000E+00
  0.00000000E+00  0.00000000E+00  0.00000000E+00  0.00000000E+00  0.00000000E+00
  0.00000000E+00  0.00000000E+00  0.00000000E+00  0.00000000E+00  0.00000000E+00
  0.00000000E+00
Integer atomic weights                     I   N=          21
           1          12          12          12           1           1
           1          12          12           1          12           1
          12           1           1           1          12           1
           1          12           1
Real atomic weights                        R   N=          21
  1.00782504E+00  1.20000000E+01  1.20000000E+01  1.20000000E+01  1.00782504E+00
  1.00782504E+00  1.00782504E+00  1.20000000E+01  1.20000000E+01  1.00782504E+00
  1.20000000E+01  1.00782504E+00  1.20000000E+01  1.00782504E+00  1.00782504E+00
  1.00782504E+00  1.20000000E+01  1.00782504E+00  1.00782504E+00  1.20000000E+01
  1.00782504E+00
Atom fragment info                         I   N=          21
           0           0           0           0           0           0
           0           0           0           0           0           0
           0           0           0           0           0           0
           0           0           0
Atom residue num                           I   N=          21
           0           0           0           0           0           0
           0           0           0           0           0           0
           0           0           0           0           0           0
           0           0           0
Nuclear spins                              I   N=          21
           1           0           0           0           1           1
           1           0           0           1           0           1
           0           1           1           1           0           1
           1           0           1
Nuclear ZEff                               R   N=          21
 -1.00000000E+00 -3.60000000E+00 -3.60000000E+00 -3.60000000E+00 -1.00000000E+00
 -1.00000000E+00 -1.00000000E+00 -3.60000000E+00 -3.60000000E+00 -1.00000000E+00
 -3.60000000E+00 -1.00000000E+00 -3.60000000E+00 -1.00000000E+00 -1.00000000E+00
 -1.00000000E+00 -3.60000000E+00 -1.00000000E+00 -1.00000000E+00 -3.60000000E+00
 -1.00000000E+00
Nuclear ZNuc                               R   N=          21
  1.00000000E+00  6.00000000E+00  6.00000000E+00  6.00000000E+00  1.00000000E+00
  1.00000000E+00  1.00000000E+00  6.00000000E+00  6.00000000E+00  1.00000000E+00
  6.00000000E+00  1.00000000E+00  6.00000000E+00  1.00000000E+00  1.00000000E+00
  1.00000000E+00  6.00000000E+00  1.00000000E+00  1.00000000E+00  6.00000000E+00
  1.00000000E+00
Nuclear QMom                               R   N=          21
  0.00000000E+00  0.00000000E+00  0.00000000E+00  0.00000000E+00  0.00000000E+00
  0.00000000E+00  0.00000000E+00  0.00000000E+00  0.00000000E+00  0.00000000E+00
  0.00000000E+00  0.00000000E+00  0.00000000E+00  0.00000000E+00  0.00000000E+00
  0.00000000E+00  0.00000000E+00  0.00000000E+00  0.00000000E+00  0.00000000E+00
  0.00000000E+00
Nuclear GFac                               R   N=          21
  2.79284600E+00  0.00000000E+00  0.00000000E+00  0.00000000E+00  2.79284600E+00
  2.79284600E+00  2.79284600E+00  0.00000000E+00  0.00000000E+00  2.79284600E+00
  0.00000000E+00  2.79284600E+00  0.00000000E+00  2.79284600E+00  2.79284600E+00
  2.79284600E+00  0.00000000E+00  2.79284600E+00  2.79284600E+00  0.00000000E+00
  2.79284600E+00
MicOpt                                     I   N=          21
          -1          -1          -1          -1          -1          -1
          -1          -1          -1          -1          -1          -1
          -1          -1          -1          -1          -1          -1
          -1          -1          -1
Number of residues                         I                0
Number of secondary structures             I                0
Number of contracted shells                I               60
Number of primitive shells                 I              147
Pure/Cartesian d shells                    I                1
Pure/Cartesian f shells                    I                0
Highest angular momentum                   I                2
Largest degree of contraction              I                6
Shell types                                I   N=          60
           0           0           0          -1          -1           2
           0          -1          -1           2           0          -1
          -1           2           0           0           0           0
           0           0           0          -1          -1           2
           0          -1          -1           2           0           0
           0          -1          -1           2           0           0
           0          -1          -1           2           0           0
           0           0           0           0           0          -1
          -1           2           0           0           0           0
           0          -1          -1           2           0           0
Number of primitives per shell             I   N=          60
           3           1           6           3           1           1
           6           3           1           1           6           3
           1           1           3           1           3           1
           3           1           6           3           1           1
           6           3           1           1           3           1
           6           3           1           1           3           1
           6           3           1           1           3           1
           3           1           3           1           6           3
           1           1           3           1           3           1
           6           3           1           1           3           1
Shell to atom map                          I   N=          60
           1           1           2           2           2           2
           3           3           3           3           4           4
           4           4           5           5           6           6
           7           7           8           8           8           8
           9           9           9           9          10          10
          11          11          11          11          12          12
          13          13          13          13          14          14
          15          15          16          16          17          17
          17          17          18          18          19          19
          20          20          20          20          21          21
Primitive exponents                        R   N=         147
  1.87311370E+01  2.82539436E+00  6.40121692E-01  1.61277759E-01  3.04752488E+03
  4.57369518E+02  1.03948685E+02  2.92101553E+01  9.28666296E+00  3.16392696E+00
  7.86827235E+00  1.88128854E+00  5.44249258E-01  1.68714478E-01  8.00000000E-01
  3.04752488E+03  4.57369518E+02  1.03948685E+02  2.92101553E+01  9.28666296E+00
  3.16392696E+00  7.86827235E+00  1.88128854E+00  5.44249258E-01  1.68714478E-01
  8.00000000E-01  3.04752488E+03  4.57369518E+02  1.03948685E+02  2.92101553E+01
  9.28666296E+00  3.16392696E+00  7.86827235E+00  1.88128854E+00  5.44249258E-01
  1.68714478E-01  8.00000000E-01  1.87311370E+01  2.82539436E+00  6.40121692E-01
  1.61277759E-01  1.87311370E+01  2.82539436E+00  6.40121692E-01  1.61277759E-01
  1.87311370E+01  2.82539436E+00  6.40121692E-01  1.61277759E-01  3.04752488E+03
  4.57369518E+02  1.03948685E+02  2.92101553E+01  9.28666296E+00  3.16392696E+00
  7.86827235E+00  1.88128854E+00  5.44249258E-01  1.68714478E-01  8.00000000E-01
  3.04752488E+03  4.57369518E+02  1.03948685E+02  2.92101553E+01  9.28666296E+00
  3.16392696E+00  7.86827235E+00  1.88128854E+00  5.44249258E-01  1.68714478E-01
  8.00000000E-01  1.87311370E+01  2.82539436E+00  6.40121692E-01  1.61277759E-01
  3.04752488E+03  4.57369518E+02  1.03948685E+02  2.92101553E+01  9.28666296E+00
  3.16392696E+00  7.86827235E+00  1.88128854E+00  5.44249258E-01  1.68714478E-01
  8.00000000E-01  1.87311370E+01  2.82539436E+00  6.40121692E-01  1.61277759E-01
  3.04752488E+03  4.57369518E+02  1.03948685E+02  2.92101553E+01  9.28666296E+00
  3.16392696E+00  7.86827235E+00  1.88128854E+00  5.44249258E-01  1.68714478E-01
  8.00000000E-01  1.87311370E+01  2.82539436E+00  6.40121692E-01  1.61277759E-01
  1.87311370E+01  2.82539436E+00  6.40121692E-01  1.61277759E-01  1.87311370E+01
  2.82539436E+00  6.40121692E-01  1.61277759E-01  3.04752488E+03  4.57369518E+02
  1.03948685E+02  2.92101553E+01  9.28666296E+00  3.16392696E+00  7.86827235E+00
  1.88128854E+00  5.44249258E-01  1.68714478E-01  8.00000000E-01  1.87311370E+01
  2.82539436E+00  6.40121692E-01  1.61277759E-01  1.87311370E+01  2.82539436E+00
  6.40121692E-01  1.61277759E-01  3.04752488E+03  4.57369518E+02  1.03948685E+02
  2.92101553E+01  9.28666296E+00  3.16392696E+00  7.86827235E+00  1.88128854E+00
  5.44249258E-01  1.68714478E-01  8.00000000E-01  1.87311370E+01  2.82539436E+00
  6.40121692E-01  1.61277759E-01
Contraction coefficients                   R   N=         147
  3.34946043E-02  2.34726953E-01  8.13757326E-01  1.00000000E+00  1.83473713E-03
  1.40373228E-02  6.88426223E-02  2.32184443E-01  4.67941348E-01  3.62311985E-01
 -1.19332420E-01 -1.60854152E-01  1.14345644E+00  1.00000000E+00  1.00000000E+00
  1.83473713E-03  1.40373228E-02  6.88426223E-02  2.32184443E-01  4.67941348E-01
  3.62311985E-01 -1.19332420E-01 -1.60854152E-01  1.14345644E+00  1.00000000E+00
  1.00000000E+00  1.83473713E-03  1.40373228E-02  6.88426223E-02  2.32184443E-01
  4.67941348E-01  3.62311985E-01 -1.19332420E-01 -1.60854152E-01  1.14345644E+00
  1.00000000E+00  1.00000000E+00  3.34946043E-02  2.34726953E-01  8.13757326E-01
  1.00000000E+00  3.34946043E-02  2.34726953E-01  8.13757326E-01  1.00000000E+00
  3.34946043E-02  2.34726953E-01  8.13757326E-01  1.00000000E+00  1.83473713E-03
  1.40373228E-02  6.88426223E-02  2.32184443E-01  4.67941348E-01  3.62311985E-01
 -1.19332420E-01 -1.60854152E-01  1.14345644E+00  1.00000000E+00  1.00000000E+00
  1.83473713E-03  1.40373228E-02  6.88426223E-02  2.32184443E-01  4.67941348E-01
  3.62311985E-01 -1.19332420E-01 -1.60854152E-01  1.14345644E+00  1.00000000E+00
  1.00000000E+00  3.34946043E-02  2.34726953E-01  8.13757326E-01  1.00000000E+00
  1.83473713E-03  1.40373228E-02  6.88426223E-02  2.32184443E-01  4.67941348E-01
  3.62311985E-01 -1.19332420E-01 -1.60854152E-01  1.14345644E+00  1.00000000E+00
  1.00000000E+00  3.34946043E-02  2.34726953E-01  8.13757326E-01  1.00000000E+00
  1.83473713E-03  1.40373228E-02  6.88426223E-02  2.32184443E-01  4.67941348E-01
  3.62311985E-01 -1.19332420E-01 -1.60854152E-01  1.14345644E+00  1.00000000E+00
  1.00000000E+00  3.34946043E-02  2.34726953E-01  8.13757326E-01  1.00000000E+00
  3.34946043E-02  2.34726953E-01  8.13757326E-01  1.00000000E+00  3.34946043E-02
  2.34726953E-01  8.13757326E-01  1.00000000E+00  1.83473713E-03  1.40373228E-02
  6.88426223E-02  2.32184443E-01  4.67941348E-01  3.62311985E-01 -1.19332420E-01
 -1.60854152E-01  1.14345644E+00  1.00000000E+00  1.00000000E+00  3.34946043E-02
  2.34726953E-01  8.13757326E-01  1.00000000E+00  3.34946043E-02  2.34726953E-01
  8.13757326E-01  1.00000000E+00  1.83473713E-03  1.40373228E-02  6.88426223E-02
  2.32184443E-01  4.67941348E-01  3.62311985E-01 -1.19332420E-01 -1.60854152E-01
  1.14345644E+00  1.00000000E+00  1.00000000E+00  3.34946043E-02  2.34726953E-01
  8.13757326E-01  1.00000000E+00
P(S=P) Contraction coefficients            R   N=         147
  0.00000000E+00  0.00000000E+00  0.00000000E+00  0.00000000E+00  0.00000000E+00
  0.00000000E+00  0.00000000E+00  0.00000000E+00  0.00000000E+00  0.00000000E+00
  6.89990666E-02  3.16423961E-01  7.44308291E-01  1.00000000E+00  0.00000000E+00
  0.00000000E+00  0.00000000E+00  0.00000000E+00  0.00000000E+00  0.00000000E+00
  0.00000000E+00  6.89990666E-02  3.16423961E-01  7.44308291E-01  1.00000000E+00
  0.00000000E+00  0.00000000E+00  0.00000000E+00  0.00000000E+00  0.00000000E+00
  0.00000000E+00  0.00000000E+00  6.89990666E-02  3.16423961E-01  7.44308291E-01
  1.00000000E+00  0.00000000E+00  0.00000000E+00  0.00000000E+00  0.00000000E+00
  0.00000000E+00  0.00000000E+00  0.00000000E+00  0.00000000E+00  0.00000000E+00
  0.00000000E+00  0.00000000E+00  0.00000000E+00  0.00000000E+00  0.00000000E+00
  0.00000000E+00  0.00000000E+00  0.00000000E+00  0.00000000E+00  0.00000000E+00
  6.89990666E-02  3.16423961E-01  7.44308291E-01  1.00000000E+00  0.00000000E+00
  0.00000000E+00  0.00000000E+00  0.00000000E+00  0.00000000E+00  0.00000000E+00
  0.00000000E+00  6.89990666E-02  3.16423961E-01  7.44308291E-01  1.00000000E+00
  0.00000000E+00  0.00000000E+00  0.00000000E+00  0.00000000E+00  0.00000000E+00
  0.00000000E+00  0.00000000E+00  0.00000000E+00  0.00000000E+00  0.00000000E+00
  0.00000000E+00  6.89990666E-02  3.16423961E-01  7.44308291E-01  1.00000000E+00
  0.00000000E+00  0.00000000E+00  0.00000000E+00  0.00000000E+00  0.00000000E+00
  0.00000000E+00  0.00000000E+00  0.00000000E+00  0.00000000E+00  0.00000000E+00
  0.00000000E+00  6.89990666E-02  3.16423961E-01  7.44308291E-01  1.00000000E+00
  0.00000000E+00  0.00000000E+00  0.00000000E+00  0.00000000E+00  0.00000000E+00
  0.00000000E+00  0.00000000E+00  0.00000000E+00  0.00000000E+00  0.00000000E+00
  0.00000000E+00  0.00000000E+00  0.00000000E+00  0.00000000E+00  0.00000000E+00
  0.00000000E+00  0.00000000E+00  0.00000000E+00  0.00000000E+00  6.89990666E-02
  3.16423961E-01  7.44308291E-01  1.00000000E+00  0.00000000E+00  0.00000000E+00
  0.00000000E+00  0.00000000E+00  0.00000000E+00  0.00000000E+00  0.00000000E+00
  0.00000000E+00  0.00000000E+00  0.00000000E+00  0.00000000E+00  0.00000000E+00
  0.00000000E+00  0.00000000E+00  0.00000000E+00  6.89990666E-02  3.16423961E-01
  7.44308291E-01  1.00000000E+00  0.00000000E+00  0.00000000E+00  0.00000000E+00
  0.00000000E+00  0.00000000E+00
Coordinates of each shell                  R   N=         180
  3.92485534E+00 -2.15027211E+00  2.23287960E+00  3.92485534E+00 -2.15027211E+00
  2.23287960E+00  2.80908166E+00 -6.81561852E-01  1.33638408E+00  2.80908166E+00
 -6.81561852E-01  1.33638408E+00  2.80908166E+00 -6.81561852E-01  1.33638408E+00
  2.80908166E+00 -6.81561852E-01  1.33638408E+00 -3.51239615E+00  1.29580788E+00
  0.00000000E+00 -3.51239615E+00  1.29580788E+00  0.00000000E+00 -3.51239615E+00
  1.29580788E+00  0.00000000E+00 -3.51239615E+00  1.29580788E+00  0.00000000E+00
  1.75619808E+00  1.29580788E+00  3.04182411E+00  1.75619808E+00  1.29580788E+00
  3.04182411E+00  1.75619808E+00  1.29580788E+00  3.04182411E+00  1.75619808E+00
  1.29580788E+00  3.04182411E+00 -2.86973809E-02 -2.15027211E+00  4.51546467E+00
 -2.86973809E-02 -2.15027211E+00  4.51546467E+00  1.24371191E+00  3.08378170E+00
  2.15417251E+00  1.24371191E+00  3.08378170E+00  2.15417251E+00  2.77458282E+00
  1.62064613E+00  4.80571904E+00  2.77458282E+00  1.62064613E+00  4.80571904E+00
 -2.47198854E-01 -6.81561852E-01  3.10092908E+00 -2.47198854E-01 -6.81561852E-01
  3.10092908E+00 -2.47198854E-01 -6.81561852E-01  3.10092908E+00 -2.47198854E-01
 -6.81561852E-01  3.10092908E+00 -2.56188281E+00 -6.81561852E-01  1.76454311E+00
 -2.56188281E+00 -6.81561852E-01  1.76454311E+00 -2.56188281E+00 -6.81561852E-01
  1.76454311E+00 -2.56188281E+00 -6.81561852E-01  1.76454311E+00 -2.86973809E-02
 -2.15027211E+00 -4.51546467E+00 -2.86973809E-02 -2.15027211E+00 -4.51546467E+00
 -2.47198854E-01 -6.81561852E-01 -3.10092908E+00 -2.47198854E-01 -6.81561852E-01
 -3.10092908E+00 -2.47198854E-01 -6.81561852E-01 -3.10092908E+00 -2.47198854E-01
 -6.81561852E-01 -3.10092908E+00 -5.54916565E+00  1.62064613E+00  0.00000000E+00
 -5.54916565E+00  1.62064613E+00  0.00000000E+00  1.75619808E+00  1.29580788E+00
 -3.04182411E+00  1.75619808E+00  1.29580788E+00 -3.04182411E+00  1.75619808E+00
  1.29580788E+00 -3.04182411E+00  1.75619808E+00  1.29580788E+00 -3.04182411E+00
  3.92485534E+00 -2.15027211E+00 -2.23287960E+00  3.92485534E+00 -2.15027211E+00
 -2.23287960E+00  1.24371191E+00  3.08378170E+00 -2.15417251E+00  1.24371191E+00
  3.08378170E+00 -2.15417251E+00  2.77458282E+00  1.62064613E+00 -4.80571904E+00
  2.77458282E+00  1.62064613E+00 -4.80571904E+00  2.80908166E+00 -6.81561852E-01
 -1.33638408E+00  2.80908166E+00 -6.81561852E-01 -1.33638408E+00  2.80908166E+00
 -6.81561852E-01 -1.33638408E+00  2.80908166E+00 -6.81561852E-01 -1.33638408E+00
 -3.89615796E+00 -2.15027211E+00  2.28258507E+00 -3.89615796E+00 -2.15027211E+00
  2.28258507E+00 -2.48742382E+00  3.08378170E+00  0.00000000E+00 -2.48742382E+00
  3.08378170E+00  0.00000000E+00 -2.56188281E+00 -6.81561852E-01 -1.76454311E+00
 -2.56188281E+00 -6.81561852E-01 -1.76454311E+00 -2.56188281E+00 -6.81561852E-01
 -1.76454311E+00 -2.56188281E+00 -6.81561852E-01 -1.76454311E+00 -3.89615796E+00
 -2.15027211E+00 -2.28258507E+00 -3.89615796E+00 -2.15027211E+00 -2.28258507E+00
Num ILSW                                   I              100
ILSW                                       I   N=         100
           0           1           0           0           2           0
           0           0           0           0           0          -1
           5           0           0           0           0           0
           0           0           0           0           0           0
           1           1           0           0           0           0
           0           0      100000           0          -1           0
           0           0           0           0           0           0
           0           0           0           1           0           0
           0 -2000000000           1           0           0           0
           0           0           4          52           0           0
           0           0           0           0           0           0
           0           0           0          21           0           1
           0           0           0           0           0           0
           0           0           0           0           0           0
           0           0           0           0           0           0
           0           0           0           0           0           0
           0           0           0           0
Num RLSW                                   I               52
RLSW                                       R   N=          52
  1.00000000E+00  1.00000000E+00  1.00000000E+00  1.00000000E+00  1.00000000E+00
  0.00000000E+00  0.00000000E+00  1.00000000E+00  0.00000000E+00  0.00000000E+00
  0.00000000E+00  0.00000000E+00  1.00000000E+00  0.00000000E+00  0.00000000E+00
  0.00000000E+00  0.00000000E+00  1.00000000E+00  0.00000000E+00  0.00000000E+00
  0.00000000E+00  0.00000000E+00  1.00000000E+00  0.00000000E+00  0.00000000E+00
  0.00000000E+00  0.00000000E+00  1.00000000E+00  0.00000000E+00  0.00000000E+00
  0.00000000E+00  0.00000000E+00  1.00000000E+00  0.00000000E+00  0.00000000E+00
  0.00000000E+00  0.00000000E+00  0.00000000E+00  1.00000000E+00  1.00000000E+00
  0.00000000E+00  1.00000000E+00  0.00000000E+00  0.00000000E+00  0.00000000E+00
  0.00000000E+00  0.00000000E+00  0.00000000E+00  0.00000000E+00  0.00000000E+00
  0.00000000E+00  0.00000000E+00
MxBond                                     I                4
NBond                                      I   N=          21
           1           3           4           4           1           1
           1           3           3           1           3           1
           4           1           1           1           3           1
           1           3           1
IBond                                      I   N=          84
           2           0           0           0           1           4
          17           0           9          12          19          20
           2           6           7           8           8           0
           0           0           4           0           0           0
           4           0           0           0           4           5
           9           0           3           8          18           0
          11           0           0           0          10          13
          20           0           3           0           0           0
          11          15          16          17          17           0
           0           0          13           0           0           0
          13           0           0           0           2          13
          14           0           9           0           0           0
           3           0           0           0           3          11
          21           0          20           0           0           0
RBond                                      R   N=          84
  1.00000000E+00  0.00000000E+00  0.00000000E+00  0.00000000E+00  1.00000000E+00
  1.00000000E+00  1.50000000E+00  0.00000000E+00  1.00000000E+00  1.00000000E+00
  1.00000000E+00  1.00000000E+00  1.00000000E+00  1.00000000E+00  1.00000000E+00
  1.00000000E+00  1.00000000E+00  0.00000000E+00  0.00000000E+00  0.00000000E+00
  1.00000000E+00  0.00000000E+00  0.00000000E+00  0.00000000E+00  1.00000000E+00
  0.00000000E+00  0.00000000E+00  0.00000000E+00  1.00000000E+00  1.00000000E+00
  1.50000000E+00  0.00000000E+00  1.00000000E+00  1.50000000E+00  1.00000000E+00
  0.00000000E+00  1.00000000E+00  0.00000000E+00  0.00000000E+00  0.00000000E+00
  1.00000000E+00  1.00000000E+00  1.50000000E+00  0.00000000E+00  1.00000000E+00
  0.00000000E+00  0.00000000E+00  0.00000000E+00  1.00000000E+00  1.00000000E+00
  1.00000000E+00  1.00000000E+00  1.00000000E+00  0.00000000E+00  0.00000000E+00
  0.00000000E+00  1.00000000E+00  0.00000000E+00  0.00000000E+00  0.00000000E+00
  1.00000000E+00  0.00000000E+00  0.00000000E+00  0.00000000E+00  1.50000000E+00
  1.00000000E+00  1.00000000E+00  0.00000000E+00  1.00000000E+00  0.00000000E+00
  0.00000000E+00  0.00000000E+00  1.00000000E+00  0.00000000E+00  0.00000000E+00
  0.00000000E+00  1.00000000E+00  1.50000000E+00  1.00000000E+00  0.00000000E+00
  1.00000000E+00  0.00000000E+00  0.00000000E+00  0.00000000E+00
Virial Ratio                               R      2.001669479186641E+00
SCF Energy                                 R     -3.476220016232891E+02
Total Energy                               R     -3.476220016232891E+02
RMS Density                                R      3.543143092390007E-09
Job Status                                 I                1
Nuclear derivative order                   I                0
External E-field                           R   N=          35
  0.00000000E+00  0.00000000E+00  0.00000000E+00  0.00000000E+00  0.00000000E+00
  0.00000000E+00  0.00000000E+00  0.00000000E+00  0.00000000E+00  0.00000000E+00
  0.00000000E+00  0.00000000E+00  0.00000000E+00  0.00000000E+00  0.00000000E+00
  0.00000000E+00  0.00000000E+00  0.00000000E+00  0.00000000E+00  0.00000000E+00
  0.00000000E+00  0.00000000E+00  0.00000000E+00  0.00000000E+00  0.00000000E+00
  0.00000000E+00  0.00000000E+00  0.00000000E+00  0.00000000E+00  0.00000000E+00
  0.00000000E+00  0.00000000E+00  0.00000000E+00  0.00000000E+00  0.00000000E+00
IOpCl                                      I                0
IROHF                                      I                0
Alpha Orbital Energies                     R   N=         159
 -1.12310430E+01 -1.12309187E+01 -1.12309186E+01 -1.12299905E+01 -1.12299904E+01
 -1.12298125E+01 -1.12269752E+01 -1.12269705E+01 -1.12269705E+01 -1.14942076E+00
 -1.08058058E+00 -1.08058043E+00 -9.13691198E-01 -9.13691165E-01 -8.60501995E-01
 -7.42676774E-01 -7.42676735E-01 -6.99176498E-01 -6.94358148E-01 -6.34328844E-01
 -6.22698281E-01 -6.22698191E-01 -5.37864406E-01 -5.37864215E-01 -5.24948980E-01
 -5.24948890E-01 -5.10334201E-01 -4.80322650E-01 -4.80322569E-01 -4.41320404E-01
 -4.29863298E-01 -2.65465842E-01 -2.65465649E-01  1.96224935E-01  1.96225342E-01
  2.13215787E-01  2.34314058E-01  2.65225945E-01  2.65225969E-01  3.27249468E-01
  3.27249498E-01  3.36242226E-01  3.36242255E-01  3.46499270E-01  3.59662970E-01
  3.59662975E-01  3.64415746E-01  3.79526515E-01  3.79526572E-01  4.07120019E-01
  4.22041700E-01  4.71514645E-01  4.83352204E-01  4.83352223E-01  5.99518771E-01
  5.99518780E-01  6.39183891E-01  6.39487081E-01  6.54272136E-01  7.42616861E-01
  7.42617000E-01  7.80455811E-01  7.80455833E-01  8.29449199E-01  8.29859282E-01
  8.43160595E-01  8.43160823E-01  8.46418651E-01  8.46418704E-01  8.51413209E-01
  9.46957851E-01  9.46957892E-01  9.60978045E-01  1.00397514E+00  1.00397529E+00
  1.02415124E+00  1.04376640E+00  1.05143531E+00  1.05143549E+00  1.12910616E+00
  1.12910617E+00  1.14992335E+00  1.15124789E+00  1.17124832E+00  1.17124836E+00
  1.17834955E+00  1.18519305E+00  1.18519316E+00  1.21664272E+00  1.22110391E+00
  1.22110394E+00  1.22253966E+00  1.26301001E+00  1.26301004E+00  1.35391279E+00
  1.41592656E+00  1.41592656E+00  1.51375141E+00  1.51375149E+00  1.60492393E+00
  1.63694444E+00  1.63694457E+00  1.66091804E+00  1.75193969E+00  1.75193989E+00
  1.85806316E+00  1.85806327E+00  1.89216492E+00  1.91862763E+00  1.95043663E+00
  1.95043678E+00  2.07080538E+00  2.07080543E+00  2.10464048E+00  2.17801644E+00
  2.17801649E+00  2.23622112E+00  2.24020032E+00  2.27589603E+00  2.29356815E+00
  2.32096403E+00  2.32096459E+00  2.38407144E+00  2.38407191E+00  2.42459925E+00
  2.42459973E+00  2.53085202E+00  2.53085211E+00  2.61740071E+00  2.63734067E+00
  2.63734091E+00  2.69179148E+00  2.69179201E+00  2.70547218E+00  2.72627796E+00
  2.76349425E+00  2.76349444E+00  2.85304692E+00  2.88774451E+00  2.88774480E+00
  2.89039484E+00  2.93981407E+00  2.93981452E+00  3.06854078E+00  3.15347414E+00
  3.16845598E+00  3.16845600E+00  3.32945990E+00  3.32946009E+00  3.36540850E+00
  4.42896900E+00  4.68140760E+00  4.68140769E+00  4.74773330E+00  4.90092918E+00
  4.90092929E+00  5.02272582E+00  5.02272591E+00  5.09844235E+00
Alpha MO coefficients                      R   N=       25281